# vtk DataFile Version 2.0
SquarePlate_mix
ASCII
DATASET POLYDATA
POINTS 961 float
0.000000 0.000000 0.000000
1.000000 0.000000 0.000000
1.000000 1.000000 0.000000
0.000000 1.000000 0.000000
0.033333 0.000000 0.000000
0.066667 0.000000 0.000000
0.100000 0.000000 0.000000
0.133333 0.000000 0.000000
0.166667 0.000000 0.000000
0.200000 0.000000 0.000000
0.233333 0.000000 0.000000
0.266667 0.000000 0.000000
0.300000 0.000000 0.000000
0.333333 0.000000 0.000000
0.366667 0.000000 0.000000
0.400000 0.000000 0.000000
0.433333 0.000000 0.000000
0.466667 0.000000 0.000000
0.500000 0.000000 0.000000
0.533333 0.000000 0.000000
0.566667 0.000000 0.000000
0.600000 0.000000 0.000000
0.633333 0.000000 0.000000
0.666667 0.000000 0.000000
0.700000 0.000000 0.000000
0.733333 0.000000 0.000000
0.766667 0.000000 0.000000
0.800000 0.000000 0.000000
0.833333 0.000000 0.000000
0.866667 0.000000 0.000000
0.900000 0.000000 0.000000
0.933333 0.000000 0.000000
0.966667 0.000000 0.000000
1.000000 0.033333 0.000000
1.000000 0.066667 0.000000
1.000000 0.100000 0.000000
1.000000 0.133333 0.000000
1.000000 0.166667 0.000000
1.000000 0.200000 0.000000
1.000000 0.233333 0.000000
1.000000 0.266667 0.000000
1.000000 0.300000 0.000000
1.000000 0.333333 0.000000
1.000000 0.366667 0.000000
1.000000 0.400000 0.000000
1.000000 0.433333 0.000000
1.000000 0.466667 0.000000
1.000000 0.500000 0.000000
1.000000 0.533333 0.000000
1.000000 0.566667 0.000000
1.000000 0.600000 0.000000
1.000000 0.633333 0.000000
1.000000 0.666667 0.000000
1.000000 0.700000 0.000000
1.000000 0.733333 0.000000
1.000000 0.766667 0.000000
1.000000 0.800000 0.000000
1.000000 0.833333 0.000000
1.000000 0.866667 0.000000
1.000000 0.900000 0.000000
1.000000 0.933333 0.000000
1.000000 0.966667 0.000000
0.966667 1.000000 0.000000
0.933333 1.000000 0.000000
0.900000 1.000000 0.000000
0.866667 1.000000 0.000000
0.833333 1.000000 0.000000
0.800000 1.000000 0.000000
0.766667 1.000000 0.000000
0.733333 1.000000 0.000000
0.700000 1.000000 0.000000
0.666667 1.000000 0.000000
0.633333 1.000000 0.000000
0.600000 1.000000 0.000000
0.566667 1.000000 0.000000
0.533333 1.000000 0.000000
0.500000 1.000000 0.000000
0.466667 1.000000 0.000000
0.433333 1.000000 0.000000
0.400000 1.000000 0.000000
0.366667 1.000000 0.000000
0.333333 1.000000 0.000000
0.300000 1.000000 0.000000
0.266667 1.000000 0.000000
0.233333 1.000000 0.000000
0.200000 1.000000 0.000000
0.166667 1.000000 0.000000
0.133333 1.000000 0.000000
0.100000 1.000000 0.000000
0.066667 1.000000 0.000000
0.033333 1.000000 0.000000
0.000000 0.966667 0.000000
0.000000 0.933333 0.000000
0.000000 0.900000 0.000000
0.000000 0.866667 0.000000
0.000000 0.833333 0.000000
0.000000 0.800000 0.000000
0.000000 0.766667 0.000000
0.000000 0.733333 0.000000
0.000000 0.700000 0.000000
0.000000 0.666667 0.000000
0.000000 0.633333 0.000000
0.000000 0.600000 0.000000
0.000000 0.566667 0.000000
0.000000 0.533333 0.000000
0.000000 0.500000 0.000000
0.000000 0.466667 0.000000
0.000000 0.433333 0.000000
0.000000 0.400000 0.000000
0.000000 0.366667 0.000000
0.000000 0.333333 0.000000
0.000000 0.300000 0.000000
0.000000 0.266667 0.000000
0.000000 0.233333 0.000000
0.000000 0.200000 0.000000
0.000000 0.166667 0.000000
0.000000 0.133333 0.000000
0.000000 0.100000 0.000000
0.000000 0.066667 0.000000
0.000000 0.033333 0.000000
0.033333 0.033333 0.000000
0.033333 0.066667 0.000000
0.033333 0.100000 0.000000
0.033333 0.133333 0.000000
0.033333 0.166667 0.000000
0.033333 0.200000 0.000000
0.033333 0.233333 0.000000
0.033333 0.266667 0.000000
0.033333 0.300000 0.000000
0.033333 0.333333 0.000000
0.033333 0.366667 0.000000
0.033333 0.400000 0.000000
0.033333 0.433333 0.000000
0.033333 0.466667 0.000000
0.033333 0.500000 0.000000
0.033333 0.533333 0.000000
0.033333 0.566667 0.000000
0.033333 0.600000 0.000000
0.033333 0.633333 0.000000
0.033333 0.666667 0.000000
0.033333 0.700000 0.000000
0.033333 0.733333 0.000000
0.033333 0.766667 0.000000
0.033333 0.800000 0.000000
0.033333 0.833333 0.000000
0.033333 0.866667 0.000000
0.033333 0.900000 0.000000
0.033333 0.933333 0.000000
0.033333 0.966667 0.000000
0.066667 0.033333 0.000000
0.066667 0.066667 0.000000
0.066667 0.100000 0.000000
0.066667 0.133333 0.000000
0.066667 0.166667 0.000000
0.066667 0.200000 0.000000
0.066667 0.233333 0.000000
0.066667 0.266667 0.000000
0.066667 0.300000 0.000000
0.066667 0.333333 0.000000
0.066667 0.366667 0.000000
0.066667 0.400000 0.000000
0.066667 0.433333 0.000000
0.066667 0.466667 0.000000
0.066667 0.500000 0.000000
0.066667 0.533333 0.000000
0.066667 0.566667 0.000000
0.066667 0.600000 0.000000
0.066667 0.633333 0.000000
0.066667 0.666667 0.000000
0.066667 0.700000 0.000000
0.066667 0.733333 0.000000
0.066667 0.766667 0.000000
0.066667 0.800000 0.000000
0.066667 0.833333 0.000000
0.066667 0.866667 0.000000
0.066667 0.900000 0.000000
0.066667 0.933333 0.000000
0.066667 0.966667 0.000000
0.100000 0.033333 0.000000
0.100000 0.066667 0.000000
0.100000 0.100000 0.000000
0.100000 0.133333 0.000000
0.100000 0.166667 0.000000
0.100000 0.200000 0.000000
0.100000 0.233333 0.000000
0.100000 0.266667 0.000000
0.100000 0.300000 0.000000
0.100000 0.333333 0.000000
0.100000 0.366667 0.000000
0.100000 0.400000 0.000000
0.100000 0.433333 0.000000
0.100000 0.466667 0.000000
0.100000 0.500000 0.000000
0.100000 0.533333 0.000000
0.100000 0.566667 0.000000
0.100000 0.600000 0.000000
0.100000 0.633333 0.000000
0.100000 0.666667 0.000000
0.100000 0.700000 0.000000
0.100000 0.733333 0.000000
0.100000 0.766667 0.000000
0.100000 0.800000 0.000000
0.100000 0.833333 0.000000
0.100000 0.866667 0.000000
0.100000 0.900000 0.000000
0.100000 0.933333 0.000000
0.100000 0.966667 0.000000
0.133333 0.033333 0.000000
0.133333 0.066667 0.000000
0.133333 0.100000 0.000000
0.133333 0.133333 0.000000
0.133333 0.166667 0.000000
0.133333 0.200000 0.000000
0.133333 0.233333 0.000000
0.133333 0.266667 0.000000
0.133333 0.300000 0.000000
0.133333 0.333333 0.000000
0.133333 0.366667 0.000000
0.133333 0.400000 0.000000
0.133333 0.433333 0.000000
0.133333 0.466667 0.000000
0.133333 0.500000 0.000000
0.133333 0.533333 0.000000
0.133333 0.566667 0.000000
0.133333 0.600000 0.000000
0.133333 0.633333 0.000000
0.133333 0.666667 0.000000
0.133333 0.700000 0.000000
0.133333 0.733333 0.000000
0.133333 0.766667 0.000000
0.133333 0.800000 0.000000
0.133333 0.833333 0.000000
0.133333 0.866667 0.000000
0.133333 0.900000 0.000000
0.133333 0.933333 0.000000
0.133333 0.966667 0.000000
0.166667 0.033333 0.000000
0.166667 0.066667 0.000000
0.166667 0.100000 0.000000
0.166667 0.133333 0.000000
0.166667 0.166667 0.000000
0.166667 0.200000 0.000000
0.166667 0.233333 0.000000
0.166667 0.266667 0.000000
0.166667 0.300000 0.000000
0.166667 0.333333 0.000000
0.166667 0.366667 0.000000
0.166667 0.400000 0.000000
0.166667 0.433333 0.000000
0.166667 0.466667 0.000000
0.166667 0.500000 0.000000
0.166667 0.533333 0.000000
0.166667 0.566667 0.000000
0.166667 0.600000 0.000000
0.166667 0.633333 0.000000
0.166667 0.666667 0.000000
0.166667 0.700000 0.000000
0.166667 0.733333 0.000000
0.166667 0.766667 0.000000
0.166667 0.800000 0.000000
0.166667 0.833333 0.000000
0.166667 0.866667 0.000000
0.166667 0.900000 0.000000
0.166667 0.933333 0.000000
0.166667 0.966667 0.000000
0.200000 0.033333 0.000000
0.200000 0.066667 0.000000
0.200000 0.100000 0.000000
0.200000 0.133333 0.000000
0.200000 0.166667 0.000000
0.200000 0.200000 0.000000
0.200000 0.233333 0.000000
0.200000 0.266667 0.000000
0.200000 0.300000 0.000000
0.200000 0.333333 0.000000
0.200000 0.366667 0.000000
0.200000 0.400000 0.000000
0.200000 0.433333 0.000000
0.200000 0.466667 0.000000
0.200000 0.500000 0.000000
0.200000 0.533333 0.000000
0.200000 0.566667 0.000000
0.200000 0.600000 0.000000
0.200000 0.633333 0.000000
0.200000 0.666667 0.000000
0.200000 0.700000 0.000000
0.200000 0.733333 0.000000
0.200000 0.766667 0.000000
0.200000 0.800000 0.000000
0.200000 0.833333 0.000000
0.200000 0.866667 0.000000
0.200000 0.900000 0.000000
0.200000 0.933333 0.000000
0.200000 0.966667 0.000000
0.233333 0.033333 0.000000
0.233333 0.066667 0.000000
0.233333 0.100000 0.000000
0.233333 0.133333 0.000000
0.233333 0.166667 0.000000
0.233333 0.200000 0.000000
0.233333 0.233333 0.000000
0.233333 0.266667 0.000000
0.233333 0.300000 0.000000
0.233333 0.333333 0.000000
0.233333 0.366667 0.000000
0.233333 0.400000 0.000000
0.233333 0.433333 0.000000
0.233333 0.466667 0.000000
0.233333 0.500000 0.000000
0.233333 0.533333 0.000000
0.233333 0.566667 0.000000
0.233333 0.600000 0.000000
0.233333 0.633333 0.000000
0.233333 0.666667 0.000000
0.233333 0.700000 0.000000
0.233333 0.733333 0.000000
0.233333 0.766667 0.000000
0.233333 0.800000 0.000000
0.233333 0.833333 0.000000
0.233333 0.866667 0.000000
0.233333 0.900000 0.000000
0.233333 0.933333 0.000000
0.233333 0.966667 0.000000
0.266667 0.033333 0.000000
0.266667 0.066667 0.000000
0.266667 0.100000 0.000000
0.266667 0.133333 0.000000
0.266667 0.166667 0.000000
0.266667 0.200000 0.000000
0.266667 0.233333 0.000000
0.266667 0.266667 0.000000
0.266667 0.300000 0.000000
0.266667 0.333333 0.000000
0.266667 0.366667 0.000000
0.266667 0.400000 0.000000
0.266667 0.433333 0.000000
0.266667 0.466667 0.000000
0.266667 0.500000 0.000000
0.266667 0.533333 0.000000
0.266667 0.566667 0.000000
0.266667 0.600000 0.000000
0.266667 0.633333 0.000000
0.266667 0.666667 0.000000
0.266667 0.700000 0.000000
0.266667 0.733333 0.000000
0.266667 0.766667 0.000000
0.266667 0.800000 0.000000
0.266667 0.833333 0.000000
0.266667 0.866667 0.000000
0.266667 0.900000 0.000000
0.266667 0.933333 0.000000
0.266667 0.966667 0.000000
0.300000 0.033333 0.000000
0.300000 0.066667 0.000000
0.300000 0.100000 0.000000
0.300000 0.133333 0.000000
0.300000 0.166667 0.000000
0.300000 0.200000 0.000000
0.300000 0.233333 0.000000
0.300000 0.266667 0.000000
0.300000 0.300000 0.000000
0.300000 0.333333 0.000000
0.300000 0.366667 0.000000
0.300000 0.400000 0.000000
0.300000 0.433333 0.000000
0.300000 0.466667 0.000000
0.300000 0.500000 0.000000
[...]
CELL_DATA 1800
SCALARS PRESSURE float 1
LOOKUP_TABLE default
-0.000000
0.000114
0.000114
-0.000460
-0.000457
0.000464
0.000466
-0.000406
-0.000355
0.000097
0.000076
0.000241
0.000376
-0.000938
-0.000792
0.000668
0.000792
-0.001249
-0.000951
-0.001106
-0.000823
0.001166
0.001474
-0.003498
-0.003049
0.001264
0.001742
-0.001565
-0.001076
-0.001842
-0.001375
0.001286
0.001786
-0.003552
-0.003023
0.001325
0.001852
-0.001684
-0.001260
-0.000796
-0.000383
0.000327
0.000659
-0.001140
-0.000803
0.000849
0.001071
-0.000695
-0.000543
0.000060
0.000280
-0.000094
-0.000079
-0.000053
0.000039
-0.000034
0.000002
-0.000000
0.000026
0.000012
-0.000002
-0.000476
-0.000477
0.001741
0.001683
-0.001445
-0.001429
0.000724
0.000723
0.000602
0.000606
-0.002450
-0.002274
0.003662
0.003845
-0.003768
-0.003383
0.003508
0.004073
0.003381
0.003975
-0.007197
-0.006409
0.013161
0.014118
-0.008727
-0.007609
0.003943
0.005156
0.005463
0.006714
-0.009525
-0.008213
0.012816
0.014188
-0.009903
-0.008620
0.005815
0.007081
-0.000392
0.000730
-0.002826
-0.001792
0.002442
0.003399
-0.005135
-0.004516
0.002082
0.002724
-0.001597
-0.001166
0.000292
0.000489
-0.000414
-0.000218
0.000096
0.000189
-0.000181
-0.000178
-0.000039
0.000007
0.000762
0.000768
-0.002500
-0.002602
0.001680
0.001540
-0.000046
-0.000125
-0.002026
-0.002189
0.005289
0.005176
-0.006991
-0.006916
0.007077
0.007343
-0.008541
-0.008150
-0.004060
-0.003443
0.008890
0.009778
-0.023269
-0.022176
0.013182
0.014494
-0.009460
-0.007975
-0.010151
-0.008463
0.011888
0.013738
-0.023135
-0.021261
0.015025
0.016853
-0.013453
-0.011570
-0.000796
0.000945
0.002453
0.004049
-0.005410
-0.003956
0.005748
0.006900
-0.002506
-0.001489
-0.000226
0.000445
0.000043
0.000556
-0.000078
0.000383
-0.000703
-0.000635
0.000494
0.000495
-0.000021
-0.000030
-0.001101
-0.001111
0.003822
0.003626
-0.002797
-0.003085
0.000868
0.000619
0.002338
0.001873
-0.005836
-0.006277
0.008806
0.008573
-0.009466
-0.009578
0.011600
0.011641
0.000044
0.000371
-0.005544
-0.004868
0.019365
0.020348
-0.012662
-0.011430
0.009898
0.011372
0.003198
0.004966
-0.006069
-0.004039
0.014901
0.017043
-0.015392
-0.013223
0.013577
0.015853
-0.002798
-0.000638
-0.005905
-0.003874
0.007275
0.009197
-0.009156
-0.007503
-0.001496
-0.000139
0.005668
0.006577
-0.007868
-0.007067
0.002651
0.003283
0.000239
0.000420
-0.000622
-0.000530
0.000002
-0.000025
0.001343
0.001312
-0.004594
-0.004878
0.004271
0.003880
-0.001745
-0.002217
-0.002471
-0.003237
0.009011
0.008228
-0.012934
-0.013615
0.013803
0.013217
-0.011921
-0.012325
0.005037
0.004872
0.000950
0.001165
-0.013424
-0.012816
0.008812
0.009761
-0.009720
-0.008415
-0.000983
0.000634
-0.004964
-0.003012
-0.004953
-0.002739
0.005038
0.007375
-0.012445
-0.010013
-0.001488
0.000941
0.007385
0.009784
-0.016159
-0.013967
0.008295
0.010219
0.002411
0.004169
-0.013673
-0.012502
0.013932
0.014730
-0.006142
-0.005526
-0.000748
-0.000423
0.000475
0.000584
0.000015
-0.000021
-0.001304
-0.001396
0.005146
0.004764
-0.003739
-0.004275
0.001452
0.000697
0.011411
0.010354
-0.016525
-0.017610
0.024321
0.023145
-0.019640
-0.020763
0.015947
0.015078
-0.013687
-0.014350
0.004134
0.003770
0.009165
0.009227
-0.010301
-0.009782
0.004612
0.005580
0.006798
0.008113
0.002271
0.003990
-0.003537
-0.001384
0.002275
0.004640
0.000574
0.002961
0.008168
0.010702
-0.020764
-0.018088
0.023551
0.025815
-0.005757
-0.003722
-0.010949
-0.008760
0.017706
0.019210
-0.018540
-0.017608
0.004529
0.005315
0.001574
0.001987
-0.000949
-0.000818
-0.000048
-0.000013
0.001099
0.000978
-0.004744
-0.005161
0.003529
0.002886
0.001287
0.000261
-0.015812
-0.017126
0.017598
0.016227
-0.021139
-0.022754
0.016307
0.014701
-0.011568
-0.012889
0.027081
0.025915
-0.017378
-0.018316
0.009223
0.008730
0.005942
0.005954
-0.000164
0.000334
-0.009524
-0.008640
-0.009055
-0.007768
0.018064
0.019939
-0.019273
-0.017014
0.008784
0.010986
-0.019767
-0.017388
0.030791
0.033581
-0.032915
-0.030553
-0.008057
-0.006002
0.017978
0.020197
-0.023507
-0.021919
0.018120
0.019238
-0.004921
-0.004088
-0.001945
-0.001655
0.000596
0.000739
-0.000057
0.000003
-0.001155
-0.001288
0.005915
0.005482
-0.004993
-0.005729
0.002932
0.001759
0.008992
0.007480
-0.000511
-0.002195
0.004803
0.002848
0.004391
0.002410
0.001293
-0.000485
-0.028251
-0.029899
0.030363
0.028915
-0.028211
-0.029271
0.001733
0.001166
-0.000068
-0.000049
0.003186
0.003644
0.020351
0.021092
-0.038387
-0.037010
0.027086
0.029114
-0.013070
-0.011085
0.016965
0.019021
-0.034645
-0.032056
0.024040
0.026428
0.022253
0.024337
-0.031205
-0.029168
0.027352
0.028906
-0.024662
-0.023366
0.011768
0.012610
-0.005218
-0.004974
0.000806
0.000948
0.000027
-0.000004
0.001316
0.001178
-0.005798
-0.006231
0.006416
0.005606
-0.004746
-0.005928
0.000817
-0.000788
-0.007992
-0.009909
0.008465
0.006280
-0.011393
-0.013682
0.006822
0.004648
0.022734
0.020718
-0.022296
-0.024169
0.030123
0.028489
-0.001602
-0.002768
0.000460
-0.000007
-0.003651
-0.003625
-0.016651
-0.016434
0.030712
0.031494
-0.012696
-0.011111
-0.002737
-0.000994
-0.002953
-0.001218
0.011325
0.013422
-0.000181
0.002050
-0.040586
-0.038457
0.032084
0.033897
-0.023417
-0.021988
0.019662
0.021063
-0.016816
-0.015944
0.010498
0.010850
-0.002643
-0.002454
0.000027
-0.000045
-0.000997
-0.001120
0.004285
0.003818
-0.003296
-0.004154
0.002931
0.001796
0.001385
-0.000227
0.004899
0.002894
0.002502
0.000224
0.001974
-0.000493
0.004341
0.001893
-0.012714
-0.015009
0.010812
0.008642
-0.010126
-0.012154
-0.006147
-0.007798
0.009266
0.008251
0.000877
0.000364
0.010081
0.009819
-0.008623
-0.008419
-0.014581
-0.013628
0.019415
0.020801
-0.018048
-0.016685
0.020458
0.021963
-0.035935
-0.033985
0.051167
0.053180
-0.029634
-0.028129
0.009096
0.010356
-0.012214
-0.010898
0.016156
0.016911
-0.014361
-0.013975
0.003159
0.003377
-0.000047
-0.000027
0.000479
0.000391
-0.001090
-0.001548
0.000252
-0.000559
0.002953
0.001858
-0.003497
-0.005094
0.006958
0.005005
-0.012153
-0.014352
0.011442
0.008979
-0.011423
-0.014036
0.008468
0.005946
0.004619
0.002283
-0.008262
-0.010486
0.022396
0.020395
-0.023559
-0.025087
0.016255
0.015211
-0.012614
-0.013303
-0.004194
-0.004532
0.024195
0.024441
-0.019295
-0.018453
0.022540
0.023465
-0.045372
-0.044370
0.063313
0.064785
-0.068700
-0.067171
0.031112
0.032278
-0.004840
-0.003769
0.007370
0.008380
-0.019889
-0.019314
0.017616
0.017937
-0.004217
-0.004075
0.000013
-0.000030
0.000040
-0.000052
-0.001504
-0.001869
0.002395
0.001722
-0.004928
-0.005955
0.005202
0.003705
-0.008071
-0.009875
0.010579
0.008538
0.001242
-0.001102
0.006640
0.004023
0.009985
0.007402
-0.012259
-0.014652
0.021854
0.019485
-0.018278
-0.020543
0.025837
0.023944
-0.022453
-0.023899
0.022180
0.021095
-0.000521
-0.001367
-0.007006
-0.007455
-0.002702
-0.002544
-0.003170
-0.002720
0.036158
0.036772
-0.065446
-0.064571
0.067582
0.068515
-0.027549
-0.026625
-0.001765
-0.000896
-0.003326
-0.002640
0.016361
0.016850
-0.016019
-0.015715
0.003336
0.003384
-0.000087
-0.000042
-0.000014
-0.000098
0.002081
0.001761
0.000469
-0.000073
0.003180
0.002346
-0.001090
-0.002299
0.007445
0.005873
-0.000965
-0.002818
-0.012945
-0.015060
0.007914
0.005518
-0.026799
-0.029232
0.025283
0.022891
-0.024931
-0.027420
0.010301
0.007904
-0.014034
-0.016111
0.025786
0.024016
-0.031663
-0.033183
0.021299
0.020000
-0.021003
-0.021979
0.026306
0.025789
-0.021423
-0.021557
-0.010081
-0.009929
0.039557
0.039818
-0.043626
-0.043262
0.011241
0.011825
0.007149
0.007712
-0.002706
-0.002260
-0.010035
-0.009651
0.010142
0.010236
-0.001945
-0.001906
-0.000058
0.000019
-0.000260
-0.000309
-0.000230
-0.000485
-0.005111
-0.005562
0.002456
0.001852
-0.002948
-0.003801
-0.000624
-0.001881
-0.002843
-0.004389
0.017051
0.015312
-0.006938
-0.008933
0.031792
0.029635
-0.022803
-0.025108
0.024511
0.022054
0.001365
-0.000998
0.006098
0.003937
-0.013862
-0.015927
0.025144
0.023197
-0.012027
-0.013680
0.017404
0.016059
-0.015857
-0.016980
0.020772
0.019985
-0.003438
-0.003851
-0.013479
-0.013786
0.018215
0.018050
0.004023
0.004133
-0.012649
-0.012460
0.006552
0.006760
0.003699
0.003878
-0.005406
-0.005360
0.000659
0.000697
0.000137
0.000013
-0.000171
-0.000184
0.000688
0.000555
0.005431
0.005153
-0.004208
-0.004571
0.005523
0.005011
-0.002149
-0.003034
0.000918
-0.000198
-0.000681
-0.001928
-0.008455
-0.009994
-0.006501
-0.008315
0.004923
0.002901
-0.004806
-0.007003
-0.007173
-0.009399
0.004007
0.001799
0.000540
-0.001712
-0.000998
-0.003191
-0.011214
-0.013151
0.009603
0.007861
-0.005519
-0.007167
-0.005524
-0.006878
0.009932
0.008944
-0.002784
-0.003595
-0.002023
-0.002665
-0.011896
-0.012303
0.011846
0.011625
-0.002139
-0.002240
-0.007242
-0.007286
0.007924
0.008083
-0.001495
-0.001461
-0.000037
-0.000006
0.000598
0.000606
-0.001111
-0.001080
-0.003101
-0.003170
0.003965
0.003860
-0.002092
-0.002252
0.000311
-0.000167
0.012190
0.011579
-0.023428
-0.024163
0.034021
0.032908
-0.023893
-0.025255
0.020484
0.018964
-0.013161
-0.014941
0.013248
0.011247
-0.005524
-0.007687
0.007352
0.005107
-0.001585
-0.003821
0.015871
0.013677
-0.013725
-0.015871
0.016428
0.014381
-0.002564
-0.004418
-0.007874
-0.009414
0.011553
0.010292
-0.006582
-0.007687
0.020130
0.019246
-0.013331
-0.013896
0.000677
0.000285
0.011193
0.010918
-0.011598
-0.011707
0.002727
0.002659
-0.000042
-0.000027
-0.000938
-0.000903
0.001921
0.002045
-0.001484
-0.001378
-0.000493
-0.000310
-0.004953
-0.004750
0.003030
0.003022
-0.017961
-0.017975
0.030362
0.030147
-0.036160
-0.036794
0.038331
0.037541
-0.027799
-0.028804
0.027851
0.026494
-0.018257
-0.019911
0.015381
0.013456
-0.008436
-0.010525
0.000439
-0.001782
-0.002824
-0.005192
0.011025
0.008674
-0.015210
-0.017498
0.013129
0.010879
0.003574
0.001604
-0.011072
-0.012755
0.016515
0.014925
-0.024247
-0.025533
0.017090
0.016237
-0.001078
-0.001777
-0.011472
-0.011880
0.012830
0.012663
-0.003175
-0.003327
0.000039
0.000004
0.000696
0.000758
-0.001654
-0.001459
0.003765
0.004102
-0.003955
-0.003484
0.010052
0.010535
-0.003491
-0.003019
0.012104
0.012675
-0.018402
-0.018102
0.023151
0.023121
-0.036555
-0.036723
0.024654
0.024110
-0.032649
-0.033605
0.028075
0.026861
-0.025390
-0.026899
0.014089
0.012259
0.006160
0.004002
-0.008178
-0.010556
0.003463
0.001076
0.010027
0.007586
-0.013864
-0.016360
0.008051
0.005782
0.004971
0.002920
-0.009220
-0.011160
0.018827
0.017295
-0.013930
-0.015044
0.004442
0.003442
0.007951
0.007417
-0.008593
-0.008768
0.002905
0.002761
-0.000052
0.000021
0.000714
0.000759
-0.003003
-0.002750
0.000424
0.001038
0.002764
0.003463
-0.009916
-0.009165
0.003058
0.004031
-0.012306
-0.011238
0.011039
0.011849
-0.019922
-0.019297
0.028674
0.029143
-0.015472
-0.015476
0.019601
0.019114
-0.021690
-0.022433
0.029421
0.028376
-0.021634
-0.023141
0.006599
0.004665
0.003255
0.001054
-0.000186
-0.002544
-0.003674
-0.006191
0.013689
0.011107
-0.008356
-0.010837
0.001026
-0.001298
0.005482
0.003341
-0.008169
-0.009932
0.011891
0.010540
-0.006389
-0.007526
0.000172
-0.000535
0.001789
0.001382
-0.001074
-0.001205
0.000021
0.000058
-0.002016
-0.001977
0.006677
0.007067
-0.005739
-0.005001
-0.001547
-0.000730
0.003385
0.004477
-0.002593
-0.001203
0.008841
0.010266
-0.007753
-0.006428
0.019401
0.020640
-0.018331
-0.017264
0.005491
0.006121
0.007919
0.008046
0.000162
-0.000049
-0.015904
-0.016539
0.022807
0.021629
-0.012251
-0.013788
0.010034
0.008184
-0.007535
-0.009787
0.010653
0.008177
-0.010218
-0.012730
0.009722
0.007162
0.003211
0.000766
-0.000471
-0.002713
0.002160
0.000183
-0.004164
-0.005647
0.007492
0.006384
-0.003713
-0.004522
0.004250
0.003854
-0.000332
-0.000422
0.000080
0.000022
0.002402
0.002499
-0.008235
-0.007779
0.005516
0.006260
0.003110
0.004093
-0.001424
0.000031
-0.000042
0.001615
-0.007402
-0.005659
0.002328
0.004175
-0.023383
-0.021678
0.004423
0.005899
0.003178
0.004402
-0.038537
-0.037691
0.024904
0.025316
-0.005309
-0.005497
-0.015501
-0.016290
0.007236
0.006164
-0.010436
-0.011848
0.013021
0.011017
-0.010863
-0.013124
0.012652
0.010372
-0.007801
-0.010298
0.000958
-0.001501
-0.001970
-0.004201
0.007877
0.005841
-0.005219
-0.006766
0.003088
0.001925
0.002029
0.001133
-0.004488
-0.004832
0.001216
0.001147
0.000029
0.000027
-0.002180
-0.002045
0.007468
0.007965
-0.002780
-0.002009
-0.010011
-0.008882
-0.002499
-0.000847
0.005879
0.007666
-0.012872
-0.010851
0.015012
0.017287
0.013659
0.015692
0.003571
0.005356
-0.003711
-0.002004
0.042193
0.043612
-0.031409
-0.030442
0.013332
0.013725
0.015260
0.015029
0.001936
0.001353
0.000469
-0.000507
0.001241
-0.000414
0.001793
-0.000090
-0.004550
-0.006452
0.009660
0.007358
-0.003192
-0.005542
0.010172
0.008113
-0.011185
-0.013100
0.017625
0.016044
-0.013899
-0.015147
0.006020
0.005076
0.002104
0.001678
-0.000835
-0.000954
0.000011
-0.000003
0.001794
0.001921
-0.007120
-0.006631
-0.001009
-0.000218
0.013339
0.014518
0.002289
0.004006
-0.015592
-0.013706
0.032022
0.034261
-0.040658
-0.038159
-0.003428
-0.001136
-0.006762
-0.004577
-0.014732
-0.012617
-0.024041
-0.022309
0.014175
0.015510
-0.010491
-0.009525
-0.016403
-0.015998
-0.011180
-0.011215
0.011620
0.011106
-0.013492
-0.014692
0.006276
0.004889
0.002573
0.001077
-0.009387
-0.011397
0.010033
0.007967
-0.013555
-0.015351
0.016112
0.014375
-0.024754
-0.026202
0.029439
0.028327
-0.016498
-0.017330
0.004882
0.004446
-0.000226
-0.000365
0.000015
0.000021
-0.001152
-0.001040
0.004436
0.004945
0.004058
0.004832
-0.015147
-0.014010
-0.000809
0.000829
0.010281
0.012192
-0.035185
-0.032879
0.039715
0.042226
-0.002255
0.000216
-0.000962
0.001576
0.024436
0.026873
0.004016
0.006045
-0.007141
-0.005463
0.008422
0.009813
0.008721
0.009647
0.011564
0.012043
-0.007658
-0.007680
0.009929
0.009346
0.002383
0.001561
-0.001986
-0.003089
0.009554
0.008037
-0.000929
-0.002463
0.006064
0.004532
-0.005170
-0.006744
0.021505
0.020316
-0.029762
-0.030655
0.022450
0.021716
-0.008302
-0.008698
0.001610
0.001501
0.000051
-0.000002
0.001089
0.001186
-0.004823
-0.004403
-0.002945
-0.002199
0.009700
0.010784
-0.002746
-0.001212
-0.006570
-0.004759
0.024297
0.026498
-0.032383
-0.029980
0.000889
0.003338
-0.000972
0.001639
-0.025827
-0.023221
-0.001594
0.000770
0.009337
0.011379
-0.016184
-0.014477
0.002668
0.003992
-0.012941
-0.012043
0.005626
0.006119
-0.010204
-0.010100
-0.004806
-0.005132
-0.001845
-0.002538
-0.008084
-0.008936
-0.003649
-0.004589
0.000817
-0.000403
-0.001301
-0.002554
-0.009861
-0.010732
0.020582
0.019820
-0.017076
-0.017719
0.007654
0.007407
-0.001694
-0.001750
0.000021
0.000050
-0.001223
-0.001156
0.005693
0.006013
-0.000434
0.000192
-0.006469
-0.005531
0.005051
0.006419
-0.004820
-0.003258
-0.008763
-0.006754
0.012887
0.015092
0.000623
0.002803
-0.001970
0.000455
0.014014
0.016569
0.002066
0.004532
-0.015910
-0.013702
0.014777
0.016690
-0.008806
-0.007156
0.007435
0.008696
-0.007107
-0.006131
0.013884
0.014526
0.000179
0.000238
0.005051
0.004865
0.015121
0.014822
-0.003301
-0.003873
0.008217
0.007438
-0.003074
-0.003788
0.009827
0.009210
-0.015470
-0.016123
0.015071
0.014606
-0.006187
-0.006368
0.001807
0.001724
-0.000012
0.000042
0.001035
0.001056
-0.005551
-0.005276
0.000813
0.001219
0.004356
0.005081
-0.008172
-0.007081
0.009339
0.010594
-0.003746
-0.001992
-0.003276
-0.001347
-0.006617
-0.004730
0.002119
0.004265
-0.015065
-0.012818
0.000192
0.002452
0.006437
0.008548
-0.009206
-0.007243
0.003420
0.005251
-0.005627
-0.004176
0.006381
0.007664
-0.016837
-0.015829
0.001355
0.001853
-0.004836
-0.004452
-0.018210
-0.018158
0.005481
0.005203
-0.006465
-0.006704
-0.000596
-0.000906
-0.001595
-0.002011
0.005661
0.005332
-0.004917
-0.005138
0.000539
0.000344
-0.000287
-0.000369
0.000009
0.000003
-0.000851
-0.000793
0.004301
0.004546
-0.001581
-0.001307
-0.002767
-0.002235
0.005225
0.005985
-0.007555
-0.006675
0.002585
0.003837
-0.000325
0.001156
0.004762
0.006351
-0.004639
-0.002845
0.011758
0.013559
-0.005740
-0.003863
-0.000244
0.001578
-0.000619
0.001178
-0.000744
0.000993
0.001716
0.003129
-0.007542
-0.006211
0.013803
0.014939
-0.003553
-0.002741
0.004254
0.004999
0.012398
0.012721
-0.002449
-0.002255
0.001717
0.001846
0.004558
0.004355
-0.004038
-0.004139
0.002210
0.002165
-0.001958
-0.002083
0.002916
0.002836
-0.000536
-0.000492
0.000008
0.000015
0.000455
0.000495
-0.002206
-0.002056
0.001118
0.001268
0.000394
0.000735
-0.001802
-0.001315
0.002034
0.002559
-0.000868
-0.000150
-0.000976
-0.000085
-0.002360
-0.001396
0.001034
0.002230
-0.006317
-0.005089
0.002330
0.003664
-0.002765
-0.001446
0.001715
0.003032
-0.002492
-0.001179
-0.000822
0.000346
0.002894
0.003983
-0.007823
-0.006881
0.001938
0.002710
-0.003381
-0.002697
-0.005763
-0.005346
0.001092
0.001573
-0.001502
-0.001365
-0.001952
-0.001964
0.002348
0.002522
-0.001945
-0.002037
0.001887
0.001827
-0.001916
-0.001885
0.000400
0.000374
-0.000006
-0.000021
-0.000082
-0.000087
0.000397
0.000370
-0.000098
-0.000076
-0.000180
-0.000094
0.000340
0.000530
-0.000381
-0.000208
-0.000025
0.000337
0.000344
0.000607
0.000202
0.000552
-0.000137
0.000276
0.001232
0.001680
-0.000727
-0.000199
0.000727
0.001246
-0.000623
-0.000145
0.000519
0.001088
0.000109
0.000586
-0.000762
-0.000248
0.001514
0.001898
-0.000425
-0.000035
0.000687
0.000939
0.001070
0.001340
-0.000271
-0.000030
0.000359
0.000393
0.000369
0.000549
-0.000523
-0.000507
0.000443
0.000420
-0.000414
-0.000388
0.000438
0.000433
-0.000086
-0.000086
0.000000
