# vtk DataFile Version 2.0
SquarePlate_mix
ASCII
DATASET POLYDATA
POINTS 441 float
0.000000 0.000000 0.000000
1.000000 0.000000 0.000000
1.000000 1.000000 0.000000
0.000000 1.000000 0.000000
0.050000 0.000000 0.000000
0.100000 0.000000 0.000000
0.150000 0.000000 0.000000
0.200000 0.000000 0.000000
0.250000 0.000000 0.000000
0.300000 0.000000 0.000000
0.350000 0.000000 0.000000
0.400000 0.000000 0.000000
0.450000 0.000000 0.000000
0.500000 0.000000 0.000000
0.550000 0.000000 0.000000
0.600000 0.000000 0.000000
0.650000 0.000000 0.000000
0.700000 0.000000 0.000000
0.750000 0.000000 0.000000
0.800000 0.000000 0.000000
0.850000 0.000000 0.000000
0.900000 0.000000 0.000000
0.950000 0.000000 0.000000
1.000000 0.050000 0.000000
1.000000 0.100000 0.000000
1.000000 0.150000 0.000000
1.000000 0.200000 0.000000
1.000000 0.250000 0.000000
1.000000 0.300000 0.000000
1.000000 0.350000 0.000000
1.000000 0.400000 0.000000
1.000000 0.450000 0.000000
1.000000 0.500000 0.000000
1.000000 0.550000 0.000000
1.000000 0.600000 0.000000
1.000000 0.650000 0.000000
1.000000 0.700000 0.000000
1.000000 0.750000 0.000000
1.000000 0.800000 0.000000
1.000000 0.850000 0.000000
1.000000 0.900000 0.000000
1.000000 0.950000 0.000000
0.950000 1.000000 0.000000
0.900000 1.000000 0.000000
0.850000 1.000000 0.000000
0.800000 1.000000 0.000000
0.750000 1.000000 0.000000
0.700000 1.000000 0.000000
0.650000 1.000000 0.000000
0.600000 1.000000 0.000000
0.550000 1.000000 0.000000
0.500000 1.000000 0.000000
0.450000 1.000000 0.000000
0.400000 1.000000 0.000000
0.350000 1.000000 0.000000
0.300000 1.000000 0.000000
0.250000 1.000000 0.000000
0.200000 1.000000 0.000000
0.150000 1.000000 0.000000
0.100000 1.000000 0.000000
0.050000 1.000000 0.000000
0.000000 0.950000 0.000000
0.000000 0.900000 0.000000
0.000000 0.850000 0.000000
0.000000 0.800000 0.000000
0.000000 0.750000 0.000000
0.000000 0.700000 0.000000
0.000000 0.650000 0.000000
0.000000 0.600000 0.000000
0.000000 0.550000 0.000000
0.000000 0.500000 0.000000
0.000000 0.450000 0.000000
0.000000 0.400000 0.000000
0.000000 0.350000 0.000000
0.000000 0.300000 0.000000
0.000000 0.250000 0.000000
0.000000 0.200000 0.000000
0.000000 0.150000 0.000000
0.000000 0.100000 0.000000
0.000000 0.050000 0.000000
0.050000 0.050000 0.000000
0.050000 0.100000 0.000000
0.050000 0.150000 0.000000
0.050000 0.200000 0.000000
0.050000 0.250000 0.000000
0.050000 0.300000 0.000000
0.050000 0.350000 0.000000
0.050000 0.400000 0.000000
0.050000 0.450000 0.000000
0.050000 0.500000 0.000000
0.050000 0.550000 0.000000
0.050000 0.600000 0.000000
0.050000 0.650000 0.000000
0.050000 0.700000 0.000000
0.050000 0.750000 0.000000
0.050000 0.800000 0.000000
0.050000 0.850000 0.000000
0.050000 0.900000 0.000000
0.050000 0.950000 0.000000
0.100000 0.050000 0.000000
0.100000 0.100000 0.000000
0.100000 0.150000 0.000000
0.100000 0.200000 0.000000
0.100000 0.250000 0.000000
0.100000 0.300000 0.000000
0.100000 0.350000 0.000000
0.100000 0.400000 0.000000
0.100000 0.450000 0.000000
0.100000 0.500000 0.000000
0.100000 0.550000 0.000000
0.100000 0.600000 0.000000
0.100000 0.650000 0.000000
0.100000 0.700000 0.000000
0.100000 0.750000 0.000000
0.100000 0.800000 0.000000
0.100000 0.850000 0.000000
0.100000 0.900000 0.000000
0.100000 0.950000 0.000000
0.150000 0.050000 0.000000
0.150000 0.100000 0.000000
0.150000 0.150000 0.000000
0.150000 0.200000 0.000000
0.150000 0.250000 0.000000
0.150000 0.300000 0.000000
0.150000 0.350000 0.000000
0.150000 0.400000 0.000000
0.150000 0.450000 0.000000
0.150000 0.500000 0.000000
0.150000 0.550000 0.000000
0.150000 0.600000 0.000000
0.150000 0.650000 0.000000
0.150000 0.700000 0.000000
0.150000 0.750000 0.000000
0.150000 0.800000 0.000000
0.150000 0.850000 0.000000
0.150000 0.900000 0.000000
0.150000 0.950000 0.000000
0.200000 0.050000 0.000000
0.200000 0.100000 0.000000
0.200000 0.150000 0.000000
0.200000 0.200000 0.000000
0.200000 0.250000 0.000000
0.200000 0.300000 0.000000
0.200000 0.350000 0.000000
0.200000 0.400000 0.000000
0.200000 0.450000 0.000000
0.200000 0.500000 0.000000
0.200000 0.550000 0.000000
0.200000 0.600000 0.000000
0.200000 0.650000 0.000000
0.200000 0.700000 0.000000
0.200000 0.750000 0.000000
0.200000 0.800000 0.000000
0.200000 0.850000 0.000000
0.200000 0.900000 0.000000
0.200000 0.950000 0.000000
0.250000 0.050000 0.000000
0.250000 0.100000 0.000000
0.250000 0.150000 0.000000
0.250000 0.200000 0.000000
0.250000 0.250000 0.000000
0.250000 0.300000 0.000000
0.250000 0.350000 0.000000
0.250000 0.400000 0.000000
0.250000 0.450000 0.000000
0.250000 0.500000 0.000000
0.250000 0.550000 0.000000
0.250000 0.600000 0.000000
0.250000 0.650000 0.000000
0.250000 0.700000 0.000000
0.250000 0.750000 0.000000
0.250000 0.800000 0.000000
0.250000 0.850000 0.000000
0.250000 0.900000 0.000000
0.250000 0.950000 0.000000
0.300000 0.050000 0.000000
0.300000 0.100000 0.000000
0.300000 0.150000 0.000000
0.300000 0.200000 0.000000
0.300000 0.250000 0.000000
0.300000 0.300000 0.000000
0.300000 0.350000 0.000000
0.300000 0.400000 0.000000
0.300000 0.450000 0.000000
0.300000 0.500000 0.000000
0.300000 0.550000 0.000000
0.300000 0.600000 0.000000
0.300000 0.650000 0.000000
0.300000 0.700000 0.000000
0.300000 0.750000 0.000000
0.300000 0.800000 0.000000
0.300000 0.850000 0.000000
0.300000 0.900000 0.000000
0.300000 0.950000 0.000000
0.350000 0.050000 0.000000
0.350000 0.100000 0.000000
0.350000 0.150000 0.000000
0.350000 0.200000 0.000000
0.350000 0.250000 0.000000
0.350000 0.300000 0.000000
0.350000 0.350000 0.000000
0.350000 0.400000 0.000000
0.350000 0.450000 0.000000
0.350000 0.500000 0.000000
0.350000 0.550000 0.000000
0.350000 0.600000 0.000000
0.350000 0.650000 0.000000
0.350000 0.700000 0.000000
0.350000 0.750000 0.000000
0.350000 0.800000 0.000000
0.350000 0.850000 0.000000
0.350000 0.900000 0.000000
0.350000 0.950000 0.000000
0.400000 0.050000 0.000000
0.400000 0.100000 0.000000
0.400000 0.150000 0.000000
0.400000 0.200000 0.000000
0.400000 0.250000 0.000000
0.400000 0.300000 0.000000
0.400000 0.350000 0.000000
0.400000 0.400000 0.000000
0.400000 0.450000 0.000000
0.400000 0.500000 0.000000
0.400000 0.550000 0.000000
0.400000 0.600000 0.000000
0.400000 0.650000 0.000000
0.400000 0.700000 0.000000
0.400000 0.750000 0.000000
0.400000 0.800000 0.000000
0.400000 0.850000 0.000000
0.400000 0.900000 0.000000
0.400000 0.950000 0.000000
0.450000 0.050000 0.000000
0.450000 0.100000 0.000000
0.450000 0.150000 0.000000
0.450000 0.200000 0.000000
0.450000 0.250000 0.000000
0.450000 0.300000 0.000000
0.450000 0.350000 0.000000
0.450000 0.400000 0.000000
0.450000 0.450000 0.000000
0.450000 0.500000 0.000000
0.450000 0.550000 0.000000
0.450000 0.600000 0.000000
0.450000 0.650000 0.000000
0.450000 0.700000 0.000000
0.450000 0.750000 0.000000
0.450000 0.800000 0.000000
0.450000 0.850000 0.000000
0.450000 0.900000 0.000000
0.450000 0.950000 0.000000
0.500000 0.050000 0.000000
0.500000 0.100000 0.000000
0.500000 0.150000 0.000000
0.500000 0.200000 0.000000
0.500000 0.250000 0.000000
0.500000 0.300000 0.000000
0.500000 0.350000 0.000000
0.500000 0.400000 0.000000
0.500000 0.450000 0.000000
0.500000 0.500000 0.000000
0.500000 0.550000 0.000000
0.500000 0.600000 0.000000
0.500000 0.650000 0.000000
0.500000 0.700000 0.000000
0.500000 0.750000 0.000000
0.500000 0.800000 0.000000
0.500000 0.850000 0.000000
0.500000 0.900000 0.000000
0.500000 0.950000 0.000000
0.550000 0.050000 0.000000
0.550000 0.100000 0.000000
0.550000 0.150000 0.000000
0.550000 0.200000 0.000000
0.550000 0.250000 0.000000
0.550000 0.300000 0.000000
0.550000 0.350000 0.000000
0.550000 0.400000 0.000000
0.550000 0.450000 0.000000
0.550000 0.500000 0.000000
0.550000 0.550000 0.000000
0.550000 0.600000 0.000000
0.550000 0.650000 0.000000
0.550000 0.700000 0.000000
0.550000 0.750000 0.000000
0.550000 0.800000 0.000000
0.550000 0.850000 0.000000
0.550000 0.900000 0.000000
0.550000 0.950000 0.000000
0.600000 0.050000 0.000000
0.600000 0.100000 0.000000
0.600000 0.150000 0.000000
0.600000 0.200000 0.000000
0.600000 0.250000 0.000000
0.600000 0.300000 0.000000
0.600000 0.350000 0.000000
0.600000 0.400000 0.000000
0.600000 0.450000 0.000000
0.600000 0.500000 0.000000
0.600000 0.550000 0.000000
0.600000 0.600000 0.000000
0.600000 0.650000 0.000000
0.600000 0.700000 0.000000
0.600000 0.750000 0.000000
0.600000 0.800000 0.000000
0.600000 0.850000 0.000000
0.600000 0.900000 0.000000
0.600000 0.950000 0.000000
0.650000 0.050000 0.000000
0.650000 0.100000 0.000000
0.650000 0.150000 0.000000
0.650000 0.200000 0.000000
0.650000 0.250000 0.000000
0.650000 0.300000 0.000000
0.650000 0.350000 0.000000
0.650000 0.400000 0.000000
0.650000 0.450000 0.000000
0.650000 0.500000 0.000000
0.650000 0.550000 0.000000
0.650000 0.600000 0.000000
0.650000 0.650000 0.000000
0.650000 0.700000 0.000000
0.650000 0.750000 0.000000
0.650000 0.800000 0.000000
0.650000 0.850000 0.000000
0.650000 0.900000 0.000000
0.650000 0.950000 0.000000
0.700000 0.050000 0.000000
0.700000 0.100000 0.000000
0.700000 0.150000 0.000000
0.700000 0.200000 0.000000
0.700000 0.250000 0.000000
0.700000 0.300000 0.000000
0.700000 0.350000 0.000000
0.700000 0.400000 0.000000
0.700000 0.450000 0.000000
0.700000 0.500000 0.000000
0.700000 0.550000 0.000000
0.700000 0.600000 0.000000
0.700000 0.650000 0.000000
0.700000 0.700000 0.000000
0.700000 0.750000 0.000000
0.700000 0.800000 0.000000
0.700000 0.850000 0.000000
0.700000 0.900000 0.000000
0.700000 0.950000 0.000000
0.750000 0.050000 0.000000
0.750000 0.100000 0.000000
0.750000 0.150000 0.000000
0.750000 0.200000 0.000000
0.750000 0.250000 0.000000
0.750000 0.300000 0.000000
0.750000 0.350000 0.000000
0.750000 0.400000 0.000000
0.750000 0.450000 0.000000
0.750000 0.500000 0.000000
0.750000 0.550000 0.000000
0.750000 0.600000 0.000000
0.750000 0.650000 0.000000
0.750000 0.700000 0.000000
0.750000 0.750000 0.000000
0.750000 0.800000 0.000000
0.750000 0.850000 0.000000
0.750000 0.900000 0.000000
0.750000 0.950000 0.000000
0.800000 0.050000 0.000000
0.800000 0.100000 0.000000
[...]
CELL_DATA 800
SCALARS PRESSURE float 1
LOOKUP_TABLE default
0.000000
-0.000015
-0.000015
0.000036
-0.000004
0.000281
-0.000004
0.000462
-0.000049
0.000656
0.000062
0.000493
-0.000126
0.001258
0.000103
0.001224
-0.000046
0.001107
-0.000040
0.001192
0.000067
0.000800
-0.000078
0.000595
0.000055
0.000110
-0.000157
0.000277
-0.000013
0.000199
-0.000007
0.000015
0.000088
-0.000130
-0.000010
0.000068
-0.000008
0.000021
0.000006
-0.000013
0.000041
-0.000022
0.000263
-0.000648
-0.000077
-0.000921
-0.000338
-0.000743
-0.000388
-0.001267
-0.000312
-0.001153
-0.000491
-0.002707
-0.001982
-0.001082
-0.000786
-0.001174
-0.001447
-0.001976
-0.001283
-0.000594
-0.000736
-0.000879
-0.000332
-0.000525
0.000185
-0.001819
-0.000350
-0.000691
0.000040
-0.000244
-0.000075
0.000422
-0.000090
0.000382
-0.000044
-0.000252
0.000013
-0.000070
-0.000059
0.000049
0.000060
0.000820
0.001023
0.000117
0.000027
0.000976
0.001455
0.000006
0.000264
0.001030
0.001846
0.001370
0.002292
-0.000303
-0.000057
0.001673
0.002099
0.001928
0.001759
-0.000596
0.000134
0.001074
0.000823
0.000499
0.001340
0.000741
0.001532
-0.000438
0.000781
-0.001371
-0.000164
-0.001442
-0.001011
0.000756
0.000534
-0.000088
0.000157
-0.000164
0.000061
-0.000182
0.000107
-0.001258
-0.001175
0.000265
0.000716
-0.002209
-0.001666
0.000413
0.001372
-0.002723
-0.002700
-0.000527
0.000710
-0.002141
-0.001221
-0.002179
-0.001662
-0.002095
-0.001555
0.000801
0.000642
-0.001355
-0.000289
-0.001769
-0.000522
-0.001115
-0.000592
-0.000151
0.000508
0.001364
0.001932
-0.000104
0.000092
-0.000966
-0.000218
0.000388
0.000045
0.000271
0.000046
0.000266
-0.000020
0.001156
0.000908
0.000053
-0.000070
0.002746
0.002504
-0.001099
-0.001580
0.003606
0.003997
-0.000808
-0.000737
0.002763
0.003727
-0.000168
0.001640
0.001195
0.001904
-0.001859
-0.000311
0.000738
0.001909
-0.000222
0.001210
-0.000409
0.001487
-0.002084
-0.000641
-0.001880
-0.001850
0.001245
0.001653
-0.000308
-0.000373
-0.000616
-0.000365
-0.000126
-0.000283
0.000052
-0.000555
0.000932
0.000383
-0.000590
-0.002324
-0.000577
-0.001663
0.003092
0.000798
-0.003417
-0.004441
0.003713
0.001692
-0.002962
-0.003138
0.000404
0.000689
-0.002781
-0.000908
0.000437
0.001204
-0.001759
-0.000034
-0.000410
0.000602
-0.000907
0.000952
0.000452
0.002661
-0.001511
0.000614
-0.001646
-0.001012
0.000406
0.000684
0.000667
0.000398
-0.000022
0.000368
-0.000683
0.000278
-0.002573
-0.003265
0.004129
0.003721
-0.001599
-0.003333
0.000733
-0.000354
0.003981
0.002545
-0.002857
-0.004700
0.006553
0.005294
-0.000030
-0.001267
0.003308
0.002978
0.000222
0.000580
-0.000175
0.000392
0.000352
0.000203
0.000284
0.000649
-0.000837
-0.000420
0.001373
0.001679
-0.000590
0.000258
-0.000906
-0.000748
-0.000353
-0.000297
0.000172
0.000379
0.000032
0.000913
0.000908
0.000997
-0.003515
-0.003884
0.003592
0.002373
-0.001266
-0.002662
-0.000188
-0.002028
0.002752
0.002129
-0.005749
-0.006945
0.002081
0.001911
-0.003413
-0.003705
0.000240
0.000878
0.000040
0.000150
-0.000806
0.000219
-0.000616
0.000361
-0.000491
0.000196
-0.001809
-0.000835
0.000876
0.001280
-0.000484
0.000564
-0.000170
0.000009
-0.000157
-0.000126
-0.000016
0.000120
-0.000503
-0.000410
0.002546
0.001599
-0.001227
-0.002569
0.002465
0.000802
0.001387
-0.000289
0.000534
-0.001359
0.006497
0.005249
-0.001324
-0.002448
0.004871
0.004376
-0.001445
-0.001893
0.001471
0.000511
0.001441
-0.000134
0.001248
0.000372
0.001208
0.000521
0.001642
0.000699
-0.000205
-0.000841
0.001562
0.000343
0.000349
0.000144
0.000045
0.000079
-0.000005
0.000412
-0.000591
-0.000467
-0.001960
-0.001648
0.000681
-0.000364
0.000013
-0.001487
-0.000042
-0.001598
0.000099
-0.000784
-0.004028
-0.005103
0.002461
0.000656
-0.003165
-0.003477
0.001401
0.001813
-0.003013
-0.002645
0.000194
0.000494
-0.001435
-0.002064
0.000233
0.000047
-0.001134
-0.001333
-0.000207
-0.000570
-0.000788
-0.001141
0.000793
-0.000154
0.000222
-0.000045
0.000025
-0.000318
0.001453
0.001816
-0.000048
0.001020
-0.001027
-0.000280
-0.001042
-0.000818
0.001833
0.001449
0.000136
0.000306
0.002868
0.002969
-0.001570
-0.001931
0.004086
0.002410
0.001935
0.000014
0.002742
0.001830
0.000132
-0.001279
0.002734
0.001843
-0.000588
-0.002124
0.002911
0.001765
0.001256
0.000360
0.000297
-0.000189
0.000170
-0.000237
0.000033
-0.000154
0.000278
-0.000479
-0.000702
-0.001603
0.001366
0.000510
0.001633
0.001301
-0.000232
-0.000081
-0.001257
-0.001961
0.000933
0.000380
-0.001942
-0.002249
0.000357
0.000565
-0.004650
-0.004630
-0.001768
-0.002123
-0.000926
-0.001246
-0.000571
-0.000847
-0.001518
-0.001976
0.001203
0.000798
-0.002983
-0.003587
0.000564
-0.000403
0.000640
-0.000712
0.000760
0.000056
0.000130
-0.000114
0.000003
-0.000122
0.001207
0.001339
-0.002379
-0.001787
-0.001342
-0.000517
-0.000113
0.001052
-0.000231
0.000807
-0.001870
-0.000467
0.000861
0.001110
0.000529
0.001874
0.003261
0.003495
0.002131
0.002210
0.000156
-0.000462
0.001892
0.001405
0.000640
-0.000602
0.001787
0.000544
0.002171
0.002039
-0.001414
-0.000989
-0.000517
-0.000155
-0.000367
-0.000224
-0.000044
-0.000110
0.000140
-0.000846
0.000110
-0.000418
0.002503
0.002196
0.000807
0.001398
-0.001122
-0.000720
0.001151
0.001156
0.001201
0.000019
0.000821
0.000252
-0.001434
-0.002354
-0.002347
-0.002679
-0.002137
-0.002549
0.001554
0.000232
-0.001523
-0.001920
-0.000186
-0.000889
-0.001030
-0.002898
0.001012
-0.000207
0.002004
0.001251
-0.000025
0.000363
-0.000246
0.000228
-0.000107
-0.000109
0.000184
0.000137
-0.000098
-0.000194
-0.002228
-0.001878
-0.000371
0.000435
-0.001154
0.000631
-0.002630
-0.001311
-0.001785
-0.000975
-0.000332
-0.000684
0.001879
0.001903
0.002242
0.002506
0.000062
0.000261
-0.000290
-0.000998
0.001995
0.001352
0.001198
-0.000306
0.001689
0.001046
-0.000170
-0.001590
-0.000667
-0.000801
0.000770
0.000624
-0.000763
0.000007
-0.000156
-0.000197
0.000105
-0.000412
0.000926
0.001337
0.000694
0.000800
0.000648
0.001660
-0.000099
0.001564
-0.000067
0.001914
-0.000419
0.001126
-0.001278
-0.000000
-0.002421
-0.002724
-0.000579
-0.000992
0.000227
-0.000130
-0.000960
-0.000598
-0.001292
-0.001536
-0.001043
-0.001410
-0.000580
-0.001422
0.001342
0.001189
-0.000031
-0.000380
0.000066
0.000528
-0.000023
0.000281
-0.000085
0.000116
-0.000243
0.000111
-0.001462
-0.001091
-0.000352
0.000226
-0.003336
-0.001860
0.000605
0.001245
-0.001804
-0.000210
-0.001433
0.000350
0.000079
0.001585
-0.000416
0.000982
0.000035
0.000209
0.000165
-0.000474
0.002104
0.002087
-0.000506
-0.000703
0.002924
0.002745
-0.001167
-0.000946
-0.000244
-0.000193
-0.000041
0.000366
-0.000867
-0.000051
-0.000290
-0.000093
0.000061
0.000105
0.000052
0.000220
0.001035
0.000915
0.000778
0.001909
0.001562
0.002289
-0.001904
-0.000457
0.001250
0.002439
-0.001383
0.000460
-0.001681
0.000031
-0.000997
0.000693
-0.001730
-0.000629
-0.001320
-0.000473
-0.001415
-0.000954
-0.000415
-0.000585
-0.001438
-0.001603
0.001224
0.001395
-0.000408
-0.000242
0.000575
0.001117
-0.000167
0.000231
-0.000010
-0.000001
-0.000014
-0.000033
-0.000023
-0.000216
-0.000692
-0.000708
-0.000751
-0.001255
-0.000663
-0.000703
0.001304
0.000665
-0.001094
-0.000694
0.001596
0.001804
0.000044
0.000747
0.001033
0.001320
0.000739
0.001158
0.001362
0.001640
0.000306
0.000535
0.001300
0.001058
0.000629
0.000518
-0.000047
-0.000243
0.000145
0.000161
-0.000594
-0.000573
0.000103
-0.000099
0.000072
-0.000001
0.000007
0.000029
-0.000010
0.000381
0.000001
0.000686
-0.000100
0.000444
0.000163
0.000008
-0.000294
-0.000055
0.000375
-0.000057
-0.000383
-0.000818
0.000289
-0.000219
-0.000234
-0.000984
0.000197
-0.000536
-0.000286
-0.000926
0.000262
-0.000695
-0.000194
-0.000736
0.000015
-0.000338
-0.000018
-0.000048
-0.000072
0.000116
0.000026
0.000100
-0.000017
-0.000010
-0.000002
-0.000002
0.000000
