# vtk DataFile Version 2.0
SquarePlate_mix
ASCII
DATASET POLYDATA
POINTS 1100 float
0.000000 0.000000 0.000000
1.000000 0.000000 0.000000
1.000000 1.000000 0.000000
0.000000 1.000000 0.000000
0.034483 0.000000 0.000000
0.068966 0.000000 0.000000
0.103448 0.000000 0.000000
0.137931 0.000000 0.000000
0.172414 0.000000 0.000000
0.206897 0.000000 0.000000
0.241379 0.000000 0.000000
0.275862 0.000000 0.000000
0.310345 0.000000 0.000000
0.344828 0.000000 0.000000
0.379310 0.000000 0.000000
0.413793 0.000000 0.000000
0.448276 0.000000 0.000000
0.482759 0.000000 0.000000
0.517241 0.000000 0.000000
0.551724 0.000000 0.000000
0.586207 0.000000 0.000000
0.620690 0.000000 0.000000
0.655172 0.000000 0.000000
0.689655 0.000000 0.000000
0.724138 0.000000 0.000000
0.758621 0.000000 0.000000
0.793103 0.000000 0.000000
0.827586 0.000000 0.000000
0.862069 0.000000 0.000000
0.896552 0.000000 0.000000
0.931034 0.000000 0.000000
0.965517 0.000000 0.000000
1.000000 0.034483 0.000000
1.000000 0.068966 0.000000
1.000000 0.103448 0.000000
1.000000 0.137931 0.000000
1.000000 0.172414 0.000000
1.000000 0.206897 0.000000
1.000000 0.241379 0.000000
1.000000 0.275862 0.000000
1.000000 0.310345 0.000000
1.000000 0.344828 0.000000
1.000000 0.379310 0.000000
1.000000 0.413793 0.000000
1.000000 0.448276 0.000000
1.000000 0.482759 0.000000
1.000000 0.517241 0.000000
1.000000 0.551724 0.000000
1.000000 0.586207 0.000000
1.000000 0.620690 0.000000
1.000000 0.655172 0.000000
1.000000 0.689655 0.000000
1.000000 0.724138 0.000000
1.000000 0.758621 0.000000
1.000000 0.793103 0.000000
1.000000 0.827586 0.000000
1.000000 0.862069 0.000000
1.000000 0.896552 0.000000
1.000000 0.931034 0.000000
1.000000 0.965517 0.000000
0.965517 1.000000 0.000000
0.931034 1.000000 0.000000
0.896552 1.000000 0.000000
0.862069 1.000000 0.000000
0.827586 1.000000 0.000000
0.793103 1.000000 0.000000
0.758621 1.000000 0.000000
0.724138 1.000000 0.000000
0.689655 1.000000 0.000000
0.655172 1.000000 0.000000
0.620690 1.000000 0.000000
0.586207 1.000000 0.000000
0.551724 1.000000 0.000000
0.517241 1.000000 0.000000
0.482759 1.000000 0.000000
0.448276 1.000000 0.000000
0.413793 1.000000 0.000000
0.379310 1.000000 0.000000
0.344828 1.000000 0.000000
0.310345 1.000000 0.000000
0.275862 1.000000 0.000000
0.241379 1.000000 0.000000
0.206897 1.000000 0.000000
0.172414 1.000000 0.000000
0.137931 1.000000 0.000000
0.103448 1.000000 0.000000
0.068966 1.000000 0.000000
0.034483 1.000000 0.000000
0.000000 0.965517 0.000000
0.000000 0.931034 0.000000
0.000000 0.896552 0.000000
0.000000 0.862069 0.000000
0.000000 0.827586 0.000000
0.000000 0.793103 0.000000
0.000000 0.758621 0.000000
0.000000 0.724138 0.000000
0.000000 0.689655 0.000000
0.000000 0.655172 0.000000
0.000000 0.620690 0.000000
0.000000 0.586207 0.000000
0.000000 0.551724 0.000000
0.000000 0.517241 0.000000
0.000000 0.482759 0.000000
0.000000 0.448276 0.000000
0.000000 0.413793 0.000000
0.000000 0.379310 0.000000
0.000000 0.344828 0.000000
0.000000 0.310345 0.000000
0.000000 0.275862 0.000000
0.000000 0.241379 0.000000
0.000000 0.206897 0.000000
0.000000 0.172414 0.000000
0.000000 0.137931 0.000000
0.000000 0.103448 0.000000
0.000000 0.068966 0.000000
0.000000 0.034483 0.000000
0.970291 0.397134 0.000000
0.089427 0.116921 0.000000
0.221416 0.972061 0.000000
0.264979 0.207471 0.000000
0.909094 0.115877 0.000000
0.379073 0.630897 0.000000
0.301581 0.773504 0.000000
0.648524 0.704565 0.000000
0.421194 0.155764 0.000000
0.561330 0.435703 0.000000
0.319370 0.714330 0.000000
0.409072 0.454301 0.000000
0.706618 0.320203 0.000000
0.344095 0.940316 0.000000
0.112004 0.760370 0.000000
0.676523 0.858434 0.000000
0.087774 0.328454 0.000000
0.311144 0.058924 0.000000
0.377943 0.718680 0.000000
0.412055 0.822884 0.000000
0.884734 0.486219 0.000000
0.113150 0.272589 0.000000
0.798927 0.106949 0.000000
0.232253 0.450851 0.000000
0.794622 0.800888 0.000000
0.768921 0.682237 0.000000
0.556477 0.641920 0.000000
0.614856 0.704573 0.000000
0.738551 0.561933 0.000000
0.429560 0.028922 0.000000
0.535085 0.030278 0.000000
0.085515 0.606136 0.000000
0.651795 0.618400 0.000000
0.353022 0.629281 0.000000
0.033503 0.964200 0.000000
0.393037 0.087522 0.000000
0.471791 0.579053 0.000000
0.587765 0.342810 0.000000
0.677747 0.499214 0.000000
0.917266 0.187157 0.000000
0.617056 0.678108 0.000000
0.765519 0.828005 0.000000
0.769245 0.448682 0.000000
0.059662 0.690112 0.000000
0.271237 0.775974 0.000000
0.113912 0.691684 0.000000
0.087496 0.398128 0.000000
0.084139 0.031488 0.000000
0.395641 0.970320 0.000000
0.293053 0.175058 0.000000
0.181504 0.861336 0.000000
0.202788 0.777186 0.000000
0.673202 0.766369 0.000000
0.557217 0.675125 0.000000
0.828833 0.825343 0.000000
0.855659 0.500374 0.000000
0.293631 0.715556 0.000000
0.966666 0.036350 0.000000
0.452082 0.173389 0.000000
0.232982 0.775322 0.000000
0.971208 0.430854 0.000000
0.970035 0.673406 0.000000
0.817773 0.136176 0.000000
0.469103 0.217308 0.000000
0.321147 0.860225 0.000000
0.970503 0.187051 0.000000
0.847817 0.135748 0.000000
0.088070 0.777685 0.000000
0.708099 0.915772 0.000000
0.560091 0.461899 0.000000
0.867831 0.885679 0.000000
0.501520 0.433403 0.000000
0.797197 0.604499 0.000000
0.941523 0.381365 0.000000
0.482452 0.939509 0.000000
0.264189 0.234097 0.000000
0.620037 0.559718 0.000000
0.468504 0.399994 0.000000
0.528877 0.733418 0.000000
0.640646 0.141013 0.000000
0.646345 0.764207 0.000000
0.884181 0.416814 0.000000
0.086829 0.467724 0.000000
0.813969 0.971782 0.000000
0.711276 0.484396 0.000000
0.734958 0.709071 0.000000
0.885346 0.726464 0.000000
0.310885 0.944059 0.000000
0.224336 0.088217 0.000000
0.885715 0.764265 0.000000
0.339124 0.776154 0.000000
0.708268 0.385182 0.000000
0.970092 0.603914 0.000000
0.409680 0.482337 0.000000
0.943090 0.620611 0.000000
0.438498 0.637732 0.000000
0.629548 0.227483 0.000000
0.442066 0.301618 0.000000
0.058923 0.344363 0.000000
0.467877 0.311500 0.000000
0.647169 0.345073 0.000000
0.648673 0.378498 0.000000
0.828805 0.622089 0.000000
0.605884 0.913203 0.000000
0.145438 0.222855 0.000000
0.085113 0.675529 0.000000
0.883490 0.276415 0.000000
0.798569 0.198592 0.000000
0.382294 0.452658 0.000000
0.518116 0.879987 0.000000
0.261097 0.628891 0.000000
0.648371 0.405455 0.000000
0.349969 0.417320 0.000000
0.854192 0.397959 0.000000
0.970195 0.708205 0.000000
0.706027 0.258471 0.000000
0.767509 0.418446 0.000000
0.729061 0.110944 0.000000
0.770710 0.553220 0.000000
0.713203 0.551353 0.000000
0.499035 0.028211 0.000000
0.768270 0.379837 0.000000
0.375241 0.748679 0.000000
0.738958 0.399685 0.000000
0.771961 0.197145 0.000000
0.115469 0.239318 0.000000
0.293970 0.147212 0.000000
0.912892 0.535263 0.000000
0.114265 0.552358 0.000000
0.412340 0.633348 0.000000
0.828343 0.163882 0.000000
0.172039 0.586527 0.000000
0.409446 0.334103 0.000000
0.827747 0.691699 0.000000
0.750040 0.139691 0.000000
0.290490 0.234525 0.000000
0.854228 0.640520 0.000000
0.740861 0.362813 0.000000
0.706386 0.766224 0.000000
0.826898 0.412383 0.000000
0.679484 0.257771 0.000000
0.166001 0.776865 0.000000
0.943910 0.203251 0.000000
0.057271 0.656913 0.000000
0.970368 0.327956 0.000000
0.690853 0.885652 0.000000
0.631411 0.106356 0.000000
0.518620 0.941596 0.000000
0.797038 0.941852 0.000000
0.970152 0.813422 0.000000
0.148846 0.971528 0.000000
0.558187 0.257402 0.000000
0.910471 0.885474 0.000000
0.735169 0.741245 0.000000
0.500694 0.089494 0.000000
0.322685 0.806132 0.000000
0.143738 0.601421 0.000000
0.795897 0.570964 0.000000
0.234376 0.652199 0.000000
0.970696 0.077313 0.000000
0.584441 0.254003 0.000000
0.797719 0.535410 0.000000
0.517909 0.060259 0.000000
0.553238 0.881974 0.000000
0.711685 0.616463 0.000000
0.382877 0.270665 0.000000
0.087273 0.289053 0.000000
0.441464 0.237146 0.000000
0.409545 0.362367 0.000000
0.319403 0.654535 0.000000
0.222839 0.028986 0.000000
0.382427 0.236659 0.000000
0.387343 0.175811 0.000000
0.971587 0.292290 0.000000
0.645375 0.081314 0.000000
0.116687 0.654645 0.000000
0.766422 0.286146 0.000000
0.678857 0.464547 0.000000
0.913790 0.465670 0.000000
0.029561 0.849223 0.000000
0.171931 0.516769 0.000000
0.889179 0.027311 0.000000
0.768417 0.709615 0.000000
0.028982 0.463863 0.000000
0.231271 0.292553 0.000000
0.149079 0.861702 0.000000
0.380325 0.538999 0.000000
0.944795 0.902099 0.000000
0.188657 0.086185 0.000000
0.292785 0.687228 0.000000
0.201215 0.662979 0.000000
0.449636 0.109226 0.000000
0.912828 0.151705 0.000000
0.496799 0.852730 0.000000
0.707036 0.287559 0.000000
0.234958 0.888687 0.000000
0.708476 0.706023 0.000000
0.389566 0.809970 0.000000
0.349877 0.269975 0.000000
0.233627 0.585362 0.000000
0.943329 0.658419 0.000000
0.084932 0.744375 0.000000
0.561875 0.402548 0.000000
0.567912 0.028515 0.000000
0.884655 0.307096 0.000000
0.173925 0.414148 0.000000
0.493804 0.760107 0.000000
0.314029 0.745259 0.000000
0.144831 0.154309 0.000000
0.745853 0.914494 0.000000
0.707098 0.798690 0.000000
0.323650 0.235226 0.000000
0.887266 0.084593 0.000000
0.826451 0.760615 0.000000
0.768430 0.741261 0.000000
0.770932 0.585918 0.000000
0.771522 0.517827 0.000000
0.971251 0.884963 0.000000
0.231973 0.351890 0.000000
0.264127 0.354865 0.000000
0.793892 0.229748 0.000000
0.588178 0.434873 0.000000
0.439755 0.547015 0.000000
0.216320 0.803117 0.000000
0.594021 0.222148 0.000000
0.412003 0.541830 0.000000
0.058434 0.204250 0.000000
0.450253 0.941533 0.000000
0.466735 0.249854 0.000000
0.816745 0.913313 0.000000
0.499892 0.254939 0.000000
0.725533 0.942477 0.000000
0.112546 0.915107 0.000000
0.710011 0.678546 0.000000
0.942677 0.798272 0.000000
0.793820 0.828542 0.000000
0.029108 0.432097 0.000000
0.379524 0.598740 0.000000
0.438021 0.669798 0.000000
0.615347 0.737515 0.000000
0.113671 0.342578 0.000000
0.766496 0.350965 0.000000
0.560837 0.316378 0.000000
0.709680 0.645516 0.000000
0.777766 0.028003 0.000000
0.349558 0.236957 0.000000
0.029572 0.152784 0.000000
0.144576 0.502543 0.000000
0.586949 0.315562 0.000000
0.798087 0.465987 0.000000
0.588355 0.402253 0.000000
[...]
POINT_DATA 1100
SCALARS P float 1
LOOKUP_TABLE default
0.000000
0.000000
0.000000
0.000000
0.000000
0.000000
0.000000
0.000000
0.000000
0.000000
0.000000
0.000000
0.000000
0.000000
0.000000
0.000000
0.000000
0.000000
0.000000
0.000000
0.000000
0.000000
0.000000
0.000000
0.000000
0.000000
0.000000
0.000000
0.000000
0.000000
0.000000
0.000000
0.000000
0.000001
0.000002
0.000003
0.000006
0.000009
0.000012
0.000016
0.000020
0.000023
0.000026
0.000029
0.000030
0.000031
0.000031
0.000030
0.000029
0.000026
0.000023
0.000020
0.000016
0.000012
0.000009
0.000006
0.000003
0.000002
0.000001
0.000000
0.000000
0.000000
0.000000
0.000000
0.000000
0.000000
0.000000
0.000000
0.000000
0.000000
0.000000
0.000000
0.000000
0.000000
0.000000
0.000000
0.000000
0.000000
0.000000
0.000000
0.000000
0.000000
0.000000
0.000000
0.000000
0.000000
0.000000
0.000000
-0.000000
-0.000001
-0.000002
-0.000003
-0.000006
-0.000009
-0.000012
-0.000016
-0.000020
-0.000023
-0.000026
-0.000029
-0.000030
-0.000031
-0.000031
-0.000030
-0.000029
-0.000026
-0.000023
-0.000020
-0.000016
-0.000012
-0.000009
-0.000006
-0.000003
-0.000002
-0.000001
-0.000000
0.000018
-0.000002
-0.000002
0.000001
0.000002
0.000011
0.000002
-0.000008
-0.000002
-0.000008
0.000008
0.000012
-0.000011
-0.000004
-0.000001
0.000003
-0.000003
-0.000004
0.000006
-0.000001
-0.000003
-0.000000
0.000004
0.000019
0.000000
-0.000010
-0.000005
-0.000006
-0.000019
-0.000001
0.000001
-0.000004
-0.000014
0.000013
-0.000000
-0.000003
0.000004
-0.000007
-0.000020
0.000002
-0.000008
0.000002
-0.000019
-0.000007
0.000002
0.000001
-0.000003
-0.000001
-0.000002
-0.000002
-0.000003
0.000002
-0.000003
-0.000004
0.000002
-0.000009
0.000008
0.000000
-0.000001
0.000002
0.000020
0.000014
0.000003
0.000000
-0.000003
0.000005
0.000003
-0.000002
0.000005
-0.000008
0.000003
-0.000000
-0.000014
0.000010
-0.000001
0.000003
-0.000014
0.000004
-0.000001
0.000003
-0.000003
-0.000003
-0.000003
0.000002
-0.000021
-0.000009
-0.000000
-0.000004
-0.000004
0.000001
0.000002
-0.000016
0.000018
0.000012
0.000010
0.000006
-0.000002
0.000004
-0.000009
0.000002
-0.000011
-0.000014
-0.000010
0.000003
0.000000
-0.000003
-0.000000
0.000000
0.000014
0.000001
0.000015
-0.000015
0.000016
-0.000008
0.000012
-0.000005
-0.000017
0.000005
-0.000018
-0.000020
-0.000000
-0.000015
0.000004
-0.000017
0.000000
-0.000001
-0.000003
0.000003
0.000003
0.000009
0.000002
0.000012
0.000007
-0.000007
0.000004
0.000003
-0.000007
-0.000015
-0.000003
-0.000012
-0.000005
0.000001
0.000004
-0.000009
0.000014
0.000004
0.000004
0.000001
0.000004
0.000005
-0.000002
-0.000002
0.000002
-0.000005
0.000000
-0.000000
0.000008
-0.000016
0.000013
0.000001
-0.000003
-0.000017
0.000001
0.000002
-0.000016
0.000005
-0.000003
0.000001
0.000009
0.000013
-0.000002
0.000002
-0.000001
0.000012
0.000004
0.000002
-0.000008
-0.000019
0.000004
-0.000003
0.000014
0.000001
-0.000008
-0.000021
0.000008
-0.000003
0.000015
0.000001
-0.000004
0.000011
0.000011
-0.000002
0.000002
-0.000000
-0.000008
-0.000004
-0.000009
-0.000000
0.000006
0.000017
0.000009
-0.000003
-0.000007
0.000001
-0.000001
0.000012
0.000000
0.000005
-0.000002
0.000005
-0.000000
0.000003
0.000002
-0.000002
-0.000005
-0.000017
-0.000019
0.000002
0.000013
0.000014
-0.000002
-0.000011
0.000008
-0.000000
-0.000001
0.000011
-0.000004
-0.000001
0.000001
0.000004
0.000000
0.000004
-0.000002
-0.000011
0.000004
0.000002
-0.000020
0.000013
0.000005
-0.000004
0.000001
-0.000013
-0.000004
-0.000014
0.000002
0.000003
-0.000003
0.000009
-0.000006
-0.000017
-0.000010
-0.000001
0.000008
-0.000001
0.000010
-0.000011
-0.000002
0.000001
0.000003
0.000001
-0.000014
-0.000010
-0.000013
-0.000002
0.000003
0.000008
-0.000003
-0.000003
-0.000002
0.000016
-0.000020
-0.000001
-0.000003
0.000016
-0.000002
-0.000004
-0.000011
-0.000011
0.000002
0.000009
-0.000001
-0.000009
-0.000009
0.000002
-0.000004
0.000012
0.000001
0.000020
0.000003
-0.000001
0.000020
0.000004
-0.000002
-0.000004
-0.000008
0.000011
0.000019
-0.000000
0.000003
0.000017
0.000001
-0.000002
0.000002
0.000001
-0.000000
0.000005
0.000002
-0.000011
0.000000
-0.000006
0.000011
-0.000017
-0.000003
-0.000000
0.000003
-0.000008
0.000015
-0.000002
-0.000008
-0.000007
0.000012
0.000005
0.000017
-0.000001
0.000017
0.000002
-0.000002
-0.000002
0.000002
0.000002
-0.000003
0.000019
-0.000018
-0.000002
0.000002
-0.000004
0.000003
-0.000018
0.000016
-0.000003
0.000003
0.000012
-0.000005
0.000003
0.000000
-0.000002
0.000002
0.000004
-0.000001
0.000003
-0.000003
-0.000001
0.000001
-0.000003
0.000001
0.000005
-0.000002
0.000018
0.000020
0.000011
-0.000015
0.000005
-0.000009
-0.000002
-0.000004
-0.000003
-0.000003
0.000000
0.000000
-0.000005
-0.000002
0.000004
0.000004
0.000010
-0.000002
-0.000002
0.000000
-0.000003
0.000000
0.000006
-0.000003
-0.000002
-0.000001
-0.000004
0.000021
-0.000020
-0.000003
-0.000001
0.000016
0.000000
-0.000002
0.000004
-0.000005
-0.000002
0.000003
0.000002
0.000009
0.000017
0.000005
0.000002
0.000000
-0.000004
0.000007
-0.000018
0.000001
0.000001
0.000014
-0.000002
-0.000010
-0.000002
-0.000020
0.000008
0.000003
0.000010
0.000001
0.000003
0.000003
-0.000001
0.000002
0.000006
0.000007
0.000000
0.000020
0.000016
0.000006
-0.000000
-0.000012
-0.000008
0.000003
0.000002
-0.000001
-0.000012
0.000003
-0.000002
0.000002
0.000000
-0.000003
0.000000
0.000002
0.000001
-0.000003
-0.000006
0.000003
-0.000001
-0.000002
-0.000003
0.000019
0.000007
-0.000001
-0.000012
-0.000004
-0.000002
-0.000002
0.000003
-0.000013
0.000008
-0.000000
-0.000002
-0.000006
0.000010
0.000002
0.000004
0.000012
-0.000002
0.000008
0.000002
0.000004
0.000003
-0.000005
0.000004
-0.000001
0.000011
-0.000008
-0.000017
-0.000002
-0.000001
0.000005
0.000009
0.000019
-0.000013
0.000002
0.000005
0.000002
-0.000000
-0.000005
0.000002
0.000000
-0.000003
-0.000021
-0.000003
0.000003
0.000018
-0.000000
-0.000010
0.000003
-0.000001
-0.000010
-0.000000
-0.000004
0.000000
-0.000000
0.000003
-0.000012
-0.000005
0.000004
-0.000003
0.000002
-0.000002
0.000004
-0.000010
0.000003
0.000002
-0.000002
-0.000003
-0.000010
-0.000014
0.000001
-0.000003
0.000003
-0.000006
-0.000018
0.000003
-0.000003
0.000004
-0.000000
0.000018
-0.000014
-0.000003
0.000003
-0.000001
0.000015
-0.000008
0.000001
-0.000002
0.000000
-0.000013
0.000005
-0.000003
-0.000004
0.000002
-0.000013
0.000003
-0.000000
-0.000011
-0.000000
-0.000001
-0.000009
0.000003
-0.000003
0.000003
0.000001
-0.000002
0.000004
0.000004
0.000003
0.000002
0.000018
-0.000003
-0.000004
-0.000017
0.000003
-0.000004
0.000009
-0.000002
-0.000001
-0.000009
-0.000005
0.000013
0.000007
-0.000021
-0.000003
-0.000007
0.000013
0.000017
-0.000001
-0.000002
-0.000015
-0.000004
-0.000014
0.000006
-0.000004
0.000003
0.000004
-0.000003
0.000019
0.000004
-0.000005
0.000001
-0.000012
0.000009
-0.000012
-0.000015
-0.000018
0.000012
-0.000011
0.000002
0.000002
-0.000015
-0.000003
-0.000004
-0.000000
0.000002
0.000002
-0.000000
-0.000011
-0.000001
-0.000000
0.000001
0.000000
-0.000002
0.000010
-0.000003
0.000003
0.000014
-0.000012
0.000001
-0.000011
-0.000004
0.000003
0.000009
-0.000013
0.000013
0.000011
0.000001
-0.000003
-0.000019
0.000001
0.000002
-0.000004
-0.000004
-0.000003
-0.000000
-0.000006
-0.000003
-0.000004
0.000021
0.000001
-0.000003
-0.000015
-0.000005
-0.000004
-0.000012
0.000017
0.000021
0.000004
0.000017
-0.000002
0.000011
0.000008
-0.000004
0.000001
-0.000002
-0.000002
-0.000003
-0.000015
-0.000001
0.000007
0.000000
-0.000001
0.000008
-0.000004
-0.000003
0.000003
-0.000003
0.000001
-0.000002
0.000001
0.000006
-0.000000
0.000006
0.000002
0.000017
-0.000010
-0.000017
-0.000001
0.000000
0.000011
0.000019
-0.000001
0.000006
-0.000007
-0.000002
0.000007
-0.000002
-0.000000
-0.000003
0.000003
0.000013
-0.000009
0.000002
0.000002
-0.000002
-0.000008
0.000003
-0.000017
-0.000004
0.000006
0.000003
0.000009
-0.000019
-0.000002
-0.000003
-0.000005
0.000002
-0.000008
0.000004
-0.000000
-0.000004
-0.000000
-0.000020
0.000012
-0.000018
0.000019
-0.000004
-0.000010
-0.000010
-0.000016
0.000008
-0.000019
0.000002
0.000000
-0.000000
0.000008
0.000002
-0.000007
-0.000009
-0.000004
-0.000000
-0.000005
-0.000006
0.000016
0.000010
0.000003
0.000002
-0.000010
0.000018
0.000002
-0.000012
-0.000012
-0.000001
-0.000000
-0.000000
-0.000002
0.000007
0.000002
-0.000013
0.000012
-0.000008
0.000001
0.000007
-0.000003
0.000001
0.000020
-0.000007
0.000001
-0.000003
-0.000000
0.000002
0.000009
-0.000010
0.000003
-0.000003
-0.000014
0.000000
-0.000002
0.000001
0.000015
0.000009
0.000011
0.000001
0.000003
-0.000021
-0.000003
-0.000004
0.000002
0.000020
-0.000003
0.000017
-0.000006
-0.000003
-0.000012
0.000002
0.000004
-0.000013
0.000006
0.000001
0.000008
0.000010
-0.000003
0.000001
-0.000017
-0.000003
0.000017
0.000004
0.000001
0.000019
-0.000004
-0.000001
0.000002
0.000003
0.000002
-0.000002
0.000007
-0.000002
-0.000001
-0.000002
-0.000001
-0.000000
-0.000004
-0.000005
-0.000000
-0.000003
-0.000001
-0.000002
-0.000012
0.000002
-0.000001
0.000020
0.000003
0.000009
0.000002
0.000012
-0.000014
-0.000017
-0.000000
0.000004
-0.000000
-0.000002
-0.000004
0.000002
-0.000004
-0.000000
0.000006
0.000015
-0.000008
0.000001
-0.000020
0.000007
0.000001
-0.000003
-0.000003
-0.000003
0.000004
0.000001
-0.000009
0.000004
0.000003
0.000002
0.000003
0.000004
-0.000000
-0.000005
0.000014
-0.000007
-0.000007
-0.000004
0.000015
-0.000005
0.000010
0.000001
0.000004
0.000004
-0.000003
0.000003
0.000001
-0.000000
0.000003
-0.000002
-0.000002
0.000011
0.000002
0.000003
0.000001
-0.000003
-0.000002
0.000004
0.000006
0.000003
0.000004
-0.000016
0.000000
0.000001
0.000020
-0.000005
-0.000002
0.000002
0.000001
-0.000005
-0.000002
0.000020
0.000018
0.000008
0.000002
0.000001
0.000003
0.000002
0.000020
-0.000008
-0.000001
0.000008
0.000004
-0.000018
0.000001
0.000002
0.000010
-0.000002
-0.000002
-0.000016
-0.000000
0.000000
0.000016
0.000004
-0.000000
0.000000
0.000003
0.000002
0.000000
0.000011
0.000000
-0.000001
0.000015
-0.000018
0.000003
0.000004
0.000014
0.000006
0.000005
0.000002
0.000007
0.000004
0.000000
-0.000012
-0.000005
-0.000004
-0.000002
0.000003
0.000013
-0.000002
0.000005
0.000017
-0.000003
-0.000007
0.000014
-0.000005
-0.000002
0.000013
-0.000002
-0.000009
-0.000001
-0.000014
-0.000006
-0.000005
-0.000019
0.000011
0.000004
-0.000016
-0.000015
0.000015
0.000004
0.000009
-0.000004
0.000000
0.000002
-0.000001
0.000004
0.000008
0.000004
-0.000002
0.000001
0.000003
0.000018
0.000001
-0.000002
0.000007
0.000005
-0.000004
0.000002
0.000010
-0.000014
0.000003
0.000000
0.000002
-0.000002
0.000004
