# vtk DataFile Version 2.0
SquarePlate_mix
ASCII
DATASET POLYDATA
POINTS 961 float
0.000000 0.000000 0.000000
1.000000 0.000000 0.000000
1.000000 1.000000 0.000000
0.000000 1.000000 0.000000
0.033333 0.000000 0.000000
0.066667 0.000000 0.000000
0.100000 0.000000 0.000000
0.133333 0.000000 0.000000
0.166667 0.000000 0.000000
0.200000 0.000000 0.000000
0.233333 0.000000 0.000000
0.266667 0.000000 0.000000
0.300000 0.000000 0.000000
0.333333 0.000000 0.000000
0.366667 0.000000 0.000000
0.400000 0.000000 0.000000
0.433333 0.000000 0.000000
0.466667 0.000000 0.000000
0.500000 0.000000 0.000000
0.533333 0.000000 0.000000
0.566667 0.000000 0.000000
0.600000 0.000000 0.000000
0.633333 0.000000 0.000000
0.666667 0.000000 0.000000
0.700000 0.000000 0.000000
0.733333 0.000000 0.000000
0.766667 0.000000 0.000000
0.800000 0.000000 0.000000
0.833333 0.000000 0.000000
0.866667 0.000000 0.000000
0.900000 0.000000 0.000000
0.933333 0.000000 0.000000
0.966667 0.000000 0.000000
1.000000 0.033333 0.000000
1.000000 0.066667 0.000000
1.000000 0.100000 0.000000
1.000000 0.133333 0.000000
1.000000 0.166667 0.000000
1.000000 0.200000 0.000000
1.000000 0.233333 0.000000
1.000000 0.266667 0.000000
1.000000 0.300000 0.000000
1.000000 0.333333 0.000000
1.000000 0.366667 0.000000
1.000000 0.400000 0.000000
1.000000 0.433333 0.000000
1.000000 0.466667 0.000000
1.000000 0.500000 0.000000
1.000000 0.533333 0.000000
1.000000 0.566667 0.000000
1.000000 0.600000 0.000000
1.000000 0.633333 0.000000
1.000000 0.666667 0.000000
1.000000 0.700000 0.000000
1.000000 0.733333 0.000000
1.000000 0.766667 0.000000
1.000000 0.800000 0.000000
1.000000 0.833333 0.000000
1.000000 0.866667 0.000000
1.000000 0.900000 0.000000
1.000000 0.933333 0.000000
1.000000 0.966667 0.000000
0.966667 1.000000 0.000000
0.933333 1.000000 0.000000
0.900000 1.000000 0.000000
0.866667 1.000000 0.000000
0.833333 1.000000 0.000000
0.800000 1.000000 0.000000
0.766667 1.000000 0.000000
0.733333 1.000000 0.000000
0.700000 1.000000 0.000000
0.666667 1.000000 0.000000
0.633333 1.000000 0.000000
0.600000 1.000000 0.000000
0.566667 1.000000 0.000000
0.533333 1.000000 0.000000
0.500000 1.000000 0.000000
0.466667 1.000000 0.000000
0.433333 1.000000 0.000000
0.400000 1.000000 0.000000
0.366667 1.000000 0.000000
0.333333 1.000000 0.000000
0.300000 1.000000 0.000000
0.266667 1.000000 0.000000
0.233333 1.000000 0.000000
0.200000 1.000000 0.000000
0.166667 1.000000 0.000000
0.133333 1.000000 0.000000
0.100000 1.000000 0.000000
0.066667 1.000000 0.000000
0.033333 1.000000 0.000000
0.000000 0.966667 0.000000
0.000000 0.933333 0.000000
0.000000 0.900000 0.000000
0.000000 0.866667 0.000000
0.000000 0.833333 0.000000
0.000000 0.800000 0.000000
0.000000 0.766667 0.000000
0.000000 0.733333 0.000000
0.000000 0.700000 0.000000
0.000000 0.666667 0.000000
0.000000 0.633333 0.000000
0.000000 0.600000 0.000000
0.000000 0.566667 0.000000
0.000000 0.533333 0.000000
0.000000 0.500000 0.000000
0.000000 0.466667 0.000000
0.000000 0.433333 0.000000
0.000000 0.400000 0.000000
0.000000 0.366667 0.000000
0.000000 0.333333 0.000000
0.000000 0.300000 0.000000
0.000000 0.266667 0.000000
0.000000 0.233333 0.000000
0.000000 0.200000 0.000000
0.000000 0.166667 0.000000
0.000000 0.133333 0.000000
0.000000 0.100000 0.000000
0.000000 0.066667 0.000000
0.000000 0.033333 0.000000
0.033333 0.033333 0.000000
0.033333 0.066667 0.000000
0.033333 0.100000 0.000000
0.033333 0.133333 0.000000
0.033333 0.166667 0.000000
0.033333 0.200000 0.000000
0.033333 0.233333 0.000000
0.033333 0.266667 0.000000
0.033333 0.300000 0.000000
0.033333 0.333333 0.000000
0.033333 0.366667 0.000000
0.033333 0.400000 0.000000
0.033333 0.433333 0.000000
0.033333 0.466667 0.000000
0.033333 0.500000 0.000000
0.033333 0.533333 0.000000
0.033333 0.566667 0.000000
0.033333 0.600000 0.000000
0.033333 0.633333 0.000000
0.033333 0.666667 0.000000
0.033333 0.700000 0.000000
0.033333 0.733333 0.000000
0.033333 0.766667 0.000000
0.033333 0.800000 0.000000
0.033333 0.833333 0.000000
0.033333 0.866667 0.000000
0.033333 0.900000 0.000000
0.033333 0.933333 0.000000
0.033333 0.966667 0.000000
0.066667 0.033333 0.000000
0.066667 0.066667 0.000000
0.066667 0.100000 0.000000
0.066667 0.133333 0.000000
0.066667 0.166667 0.000000
0.066667 0.200000 0.000000
0.066667 0.233333 0.000000
0.066667 0.266667 0.000000
0.066667 0.300000 0.000000
0.066667 0.333333 0.000000
0.066667 0.366667 0.000000
0.066667 0.400000 0.000000
0.066667 0.433333 0.000000
0.066667 0.466667 0.000000
0.066667 0.500000 0.000000
0.066667 0.533333 0.000000
0.066667 0.566667 0.000000
0.066667 0.600000 0.000000
0.066667 0.633333 0.000000
0.066667 0.666667 0.000000
0.066667 0.700000 0.000000
0.066667 0.733333 0.000000
0.066667 0.766667 0.000000
0.066667 0.800000 0.000000
0.066667 0.833333 0.000000
0.066667 0.866667 0.000000
0.066667 0.900000 0.000000
0.066667 0.933333 0.000000
0.066667 0.966667 0.000000
0.100000 0.033333 0.000000
0.100000 0.066667 0.000000
0.100000 0.100000 0.000000
0.100000 0.133333 0.000000
0.100000 0.166667 0.000000
0.100000 0.200000 0.000000
0.100000 0.233333 0.000000
0.100000 0.266667 0.000000
0.100000 0.300000 0.000000
0.100000 0.333333 0.000000
0.100000 0.366667 0.000000
0.100000 0.400000 0.000000
0.100000 0.433333 0.000000
0.100000 0.466667 0.000000
0.100000 0.500000 0.000000
0.100000 0.533333 0.000000
0.100000 0.566667 0.000000
0.100000 0.600000 0.000000
0.100000 0.633333 0.000000
0.100000 0.666667 0.000000
0.100000 0.700000 0.000000
0.100000 0.733333 0.000000
0.100000 0.766667 0.000000
0.100000 0.800000 0.000000
0.100000 0.833333 0.000000
0.100000 0.866667 0.000000
0.100000 0.900000 0.000000
0.100000 0.933333 0.000000
0.100000 0.966667 0.000000
0.133333 0.033333 0.000000
0.133333 0.066667 0.000000
0.133333 0.100000 0.000000
0.133333 0.133333 0.000000
0.133333 0.166667 0.000000
0.133333 0.200000 0.000000
0.133333 0.233333 0.000000
0.133333 0.266667 0.000000
0.133333 0.300000 0.000000
0.133333 0.333333 0.000000
0.133333 0.366667 0.000000
0.133333 0.400000 0.000000
0.133333 0.433333 0.000000
0.133333 0.466667 0.000000
0.133333 0.500000 0.000000
0.133333 0.533333 0.000000
0.133333 0.566667 0.000000
0.133333 0.600000 0.000000
0.133333 0.633333 0.000000
0.133333 0.666667 0.000000
0.133333 0.700000 0.000000
0.133333 0.733333 0.000000
0.133333 0.766667 0.000000
0.133333 0.800000 0.000000
0.133333 0.833333 0.000000
0.133333 0.866667 0.000000
0.133333 0.900000 0.000000
0.133333 0.933333 0.000000
0.133333 0.966667 0.000000
0.166667 0.033333 0.000000
0.166667 0.066667 0.000000
0.166667 0.100000 0.000000
0.166667 0.133333 0.000000
0.166667 0.166667 0.000000
0.166667 0.200000 0.000000
0.166667 0.233333 0.000000
0.166667 0.266667 0.000000
0.166667 0.300000 0.000000
0.166667 0.333333 0.000000
0.166667 0.366667 0.000000
0.166667 0.400000 0.000000
0.166667 0.433333 0.000000
0.166667 0.466667 0.000000
0.166667 0.500000 0.000000
0.166667 0.533333 0.000000
0.166667 0.566667 0.000000
0.166667 0.600000 0.000000
0.166667 0.633333 0.000000
0.166667 0.666667 0.000000
0.166667 0.700000 0.000000
0.166667 0.733333 0.000000
0.166667 0.766667 0.000000
0.166667 0.800000 0.000000
0.166667 0.833333 0.000000
0.166667 0.866667 0.000000
0.166667 0.900000 0.000000
0.166667 0.933333 0.000000
0.166667 0.966667 0.000000
0.200000 0.033333 0.000000
0.200000 0.066667 0.000000
0.200000 0.100000 0.000000
0.200000 0.133333 0.000000
0.200000 0.166667 0.000000
0.200000 0.200000 0.000000
0.200000 0.233333 0.000000
0.200000 0.266667 0.000000
0.200000 0.300000 0.000000
0.200000 0.333333 0.000000
0.200000 0.366667 0.000000
0.200000 0.400000 0.000000
0.200000 0.433333 0.000000
0.200000 0.466667 0.000000
0.200000 0.500000 0.000000
0.200000 0.533333 0.000000
0.200000 0.566667 0.000000
0.200000 0.600000 0.000000
0.200000 0.633333 0.000000
0.200000 0.666667 0.000000
0.200000 0.700000 0.000000
0.200000 0.733333 0.000000
0.200000 0.766667 0.000000
0.200000 0.800000 0.000000
0.200000 0.833333 0.000000
0.200000 0.866667 0.000000
0.200000 0.900000 0.000000
0.200000 0.933333 0.000000
0.200000 0.966667 0.000000
0.233333 0.033333 0.000000
0.233333 0.066667 0.000000
0.233333 0.100000 0.000000
0.233333 0.133333 0.000000
0.233333 0.166667 0.000000
0.233333 0.200000 0.000000
0.233333 0.233333 0.000000
0.233333 0.266667 0.000000
0.233333 0.300000 0.000000
0.233333 0.333333 0.000000
0.233333 0.366667 0.000000
0.233333 0.400000 0.000000
0.233333 0.433333 0.000000
0.233333 0.466667 0.000000
0.233333 0.500000 0.000000
0.233333 0.533333 0.000000
0.233333 0.566667 0.000000
0.233333 0.600000 0.000000
0.233333 0.633333 0.000000
0.233333 0.666667 0.000000
0.233333 0.700000 0.000000
0.233333 0.733333 0.000000
0.233333 0.766667 0.000000
0.233333 0.800000 0.000000
0.233333 0.833333 0.000000
0.233333 0.866667 0.000000
0.233333 0.900000 0.000000
0.233333 0.933333 0.000000
0.233333 0.966667 0.000000
0.266667 0.033333 0.000000
0.266667 0.066667 0.000000
0.266667 0.100000 0.000000
0.266667 0.133333 0.000000
0.266667 0.166667 0.000000
0.266667 0.200000 0.000000
0.266667 0.233333 0.000000
0.266667 0.266667 0.000000
0.266667 0.300000 0.000000
0.266667 0.333333 0.000000
0.266667 0.366667 0.000000
0.266667 0.400000 0.000000
0.266667 0.433333 0.000000
0.266667 0.466667 0.000000
0.266667 0.500000 0.000000
0.266667 0.533333 0.000000
0.266667 0.566667 0.000000
0.266667 0.600000 0.000000
0.266667 0.633333 0.000000
0.266667 0.666667 0.000000
0.266667 0.700000 0.000000
0.266667 0.733333 0.000000
0.266667 0.766667 0.000000
0.266667 0.800000 0.000000
0.266667 0.833333 0.000000
0.266667 0.866667 0.000000
0.266667 0.900000 0.000000
0.266667 0.933333 0.000000
0.266667 0.966667 0.000000
0.300000 0.033333 0.000000
0.300000 0.066667 0.000000
0.300000 0.100000 0.000000
0.300000 0.133333 0.000000
0.300000 0.166667 0.000000
0.300000 0.200000 0.000000
0.300000 0.233333 0.000000
0.300000 0.266667 0.000000
0.300000 0.300000 0.000000
0.300000 0.333333 0.000000
0.300000 0.366667 0.000000
0.300000 0.400000 0.000000
0.300000 0.433333 0.000000
0.300000 0.466667 0.000000
0.300000 0.500000 0.000000
[...]
CELL_DATA 1800
SCALARS PRESSURE float 1
LOOKUP_TABLE default
-0.000000
0.000122
0.000006
-0.000565
0.000001
0.000959
-0.000016
-0.000929
-0.000020
0.000558
-0.000009
0.000309
0.000006
-0.001239
-0.000056
0.001751
0.000049
-0.001749
-0.000038
0.000058
-0.000056
0.002412
0.000030
-0.004487
-0.000023
0.004754
-0.000026
-0.002867
-0.000002
-0.000288
-0.000020
0.003192
0.000022
-0.004779
0.000009
0.004752
-0.000028
-0.003124
0.000027
0.000832
0.000009
0.001064
0.000007
-0.001576
-0.000005
0.001773
-0.000026
-0.001510
0.000063
0.000722
0.000042
-0.000269
-0.000029
0.000043
0.000010
0.000010
0.000046
0.000034
0.000003
-0.000011
0.000122
-0.000374
-0.000580
0.001588
0.000922
-0.002122
-0.000975
0.001248
0.000513
0.000619
0.000193
-0.002624
-0.001357
0.004990
0.001647
-0.005257
-0.001842
0.005628
-0.000059
0.000168
0.002309
-0.007760
-0.004579
0.015980
0.004637
-0.017048
-0.002966
0.009875
-0.000315
0.001398
0.003222
-0.011633
-0.004710
0.017523
0.004810
-0.018146
-0.003051
0.012594
0.000977
-0.005506
0.001238
-0.001381
-0.001407
0.003502
0.001954
-0.005962
-0.001332
0.005777
0.000836
-0.003458
-0.000194
0.001487
0.000101
-0.000753
0.000040
0.000268
-0.000008
-0.000440
-0.000039
0.000110
-0.000380
0.000399
0.001581
-0.001737
-0.002188
0.002191
0.001101
-0.000507
0.000374
-0.001469
-0.003022
0.004770
0.004597
-0.007102
-0.005782
0.008794
0.005158
-0.009951
-0.000285
0.004860
-0.008281
0.005297
0.015603
-0.015983
-0.017299
0.019730
0.009690
-0.012497
0.001316
0.000897
-0.011692
0.010334
0.017588
-0.017665
-0.017922
0.020059
0.012878
-0.015861
-0.005126
0.006888
-0.000979
0.001619
0.003918
-0.004714
-0.005506
0.004838
0.006123
-0.002911
-0.003187
-0.001681
0.001802
0.001864
-0.000454
-0.001013
0.000471
-0.000570
-0.000287
0.001023
0.000230
-0.000297
0.000414
-0.000697
-0.001767
0.002993
0.002059
-0.004308
-0.000783
0.003112
-0.001841
0.000033
0.004240
-0.002989
-0.007779
0.007848
0.007980
-0.009332
-0.010789
0.011450
0.004038
-0.006226
0.004509
0.000169
-0.016618
0.009355
0.019261
-0.011921
-0.012847
0.010412
0.000696
-0.005544
0.010261
0.001214
-0.017507
0.003341
0.020421
-0.010184
-0.015404
0.012935
0.007431
-0.009903
0.002300
-0.001701
-0.003958
0.008147
0.005589
-0.011983
-0.002091
0.004549
-0.000836
0.005394
0.002530
-0.011724
-0.000604
0.008799
-0.000272
-0.003424
0.001206
0.000013
-0.000289
0.000101
-0.000691
0.000607
0.002984
-0.003068
-0.004419
0.004727
0.002818
-0.003015
-0.000456
-0.000719
-0.003722
0.008740
0.006926
-0.013907
-0.010399
0.017711
0.010331
-0.013783
-0.007296
0.011306
-0.000911
-0.003456
0.008270
-0.004812
-0.012859
0.010464
0.009733
-0.007877
-0.005892
0.003411
0.001112
-0.002521
0.003499
0.003416
-0.009747
-0.000208
0.013624
-0.004579
-0.008983
0.001075
-0.000536
0.007242
0.009462
-0.015610
-0.010709
0.012346
0.005840
-0.001535
0.006624
-0.011307
-0.010830
0.015530
0.009397
-0.011631
-0.002987
0.001756
0.000209
0.000931
0.000187
-0.000389
0.000674
-0.000738
-0.003032
0.003211
0.004558
-0.004301
-0.003484
0.001719
-0.001523
0.009006
0.007652
-0.019220
-0.015194
0.026875
0.016218
-0.026033
-0.015412
0.022015
0.009673
-0.018226
-0.005081
0.014527
-0.006356
0.000508
0.009158
-0.008673
-0.008883
0.007282
0.002788
0.005754
-0.002802
-0.006771
0.003504
-0.002195
0.000332
0.005652
-0.003613
-0.006182
0.002262
0.008795
0.008588
-0.021958
-0.014026
0.028067
0.013918
-0.017100
-0.000112
-0.007275
-0.009911
0.016305
0.016903
-0.020714
-0.010443
0.011483
0.002550
-0.001513
0.001386
-0.001716
-0.000178
0.000521
-0.000647
0.000267
0.003293
-0.002839
-0.004426
0.003760
0.001292
-0.000854
0.008225
-0.008107
-0.020407
0.014074
0.025356
-0.012070
-0.027830
0.011589
0.020001
-0.005792
-0.020285
0.020423
0.012603
-0.029550
-0.001223
0.027721
-0.010170
-0.011450
0.006086
0.001613
0.005016
-0.003135
-0.007056
-0.005664
-0.002083
0.025518
0.006221
-0.031541
-0.005129
0.021867
0.010126
-0.019485
-0.020476
0.028498
0.029884
-0.036180
-0.015099
0.007959
-0.005360
0.018606
0.018137
-0.025838
-0.019013
0.020880
0.012849
-0.012083
-0.000603
0.000897
-0.001242
0.000581
0.000629
-0.000424
0.000410
-0.000957
-0.002562
0.004170
0.003909
-0.007171
-0.001024
0.006976
-0.008703
-0.002025
0.012948
0.004418
-0.013646
-0.006915
0.009687
0.011351
-0.007927
-0.008761
0.018217
-0.008970
-0.031686
0.029413
0.025669
-0.030473
-0.013306
0.018893
0.000139
0.000320
-0.004076
0.000518
-0.006097
0.011952
0.025486
-0.032650
-0.031151
0.033978
0.022835
-0.018480
-0.017951
0.011069
0.030313
-0.022760
-0.034102
0.022246
0.010352
0.006409
0.021040
-0.034898
-0.023656
0.032293
0.022749
-0.031336
-0.010470
0.023761
0.002151
-0.016153
0.001318
0.006710
-0.000081
-0.001167
-0.000761
0.000286
0.004523
-0.003214
-0.006956
0.004760
0.006844
-0.004530
-0.002551
0.003256
0.003421
-0.004537
-0.008404
0.009465
0.009440
-0.008446
-0.010986
0.009493
-0.011401
0.006876
0.026939
-0.015657
-0.032856
0.022175
0.016742
-0.012319
-0.001514
0.002762
-0.000911
-0.003716
0.011035
-0.001082
-0.033018
0.015195
0.034135
-0.009187
-0.017710
-0.008668
0.012526
0.011130
-0.020935
-0.008188
0.024247
0.010595
0.008733
-0.034231
-0.032406
0.037346
0.034648
-0.023359
-0.029179
0.011679
0.025677
-0.013374
-0.014665
0.010968
0.007621
-0.006817
-0.000997
0.001168
0.000498
-0.000792
-0.002770
0.001700
0.005085
-0.003062
-0.004554
0.001265
0.002805
0.001102
-0.005473
-0.001413
0.008031
0.006798
-0.010320
-0.009149
0.007233
0.011735
0.004315
-0.010315
-0.018243
0.007915
0.019769
0.001636
-0.014532
-0.007794
0.000728
0.018446
-0.005429
-0.012140
-0.002242
0.008373
0.014712
-0.002761
-0.009100
-0.014568
-0.008111
0.025284
0.012285
-0.026390
-0.006467
0.030837
0.012613
-0.045403
-0.031941
0.052546
0.039881
-0.043738
-0.020774
0.015730
0.014073
-0.009649
-0.011370
0.014359
0.012493
-0.019616
-0.005843
0.010527
0.001566
-0.002001
-0.000473
-0.000365
0.002367
-0.000111
-0.002394
-0.001773
0.001580
0.003548
0.000890
-0.005924
-0.002152
0.008716
0.005555
-0.012649
-0.010847
0.014096
0.009647
-0.011267
-0.012713
0.009654
0.005381
0.004096
-0.000896
-0.011342
-0.010233
0.022897
0.016264
-0.027230
-0.013886
0.028128
0.007162
-0.019937
-0.003404
0.006249
-0.014698
0.014376
0.025596
-0.017972
-0.025444
0.015621
0.032504
-0.036302
-0.043348
0.063768
0.054799
-0.079766
-0.041257
0.056009
0.018315
-0.020025
-0.007211
0.002308
0.016492
-0.013290
-0.017850
0.017797
0.011761
-0.011596
-0.001654
0.001989
-0.000000
-0.000328
0.000746
-0.001820
-0.000879
0.001913
0.004212
-0.004156
-0.005660
0.003977
0.008464
-0.004690
-0.013506
0.005668
0.012703
0.004356
-0.013068
-0.006006
0.007475
0.013046
0.001586
-0.018431
-0.014019
0.022310
0.020316
-0.017194
-0.029486
0.017367
0.026244
-0.019754
-0.021477
0.024823
0.005165
-0.016290
0.013897
0.008495
-0.017867
-0.013019
0.016272
0.015438
-0.035089
0.003299
0.065455
-0.037759
-0.077749
0.053279
0.058277
-0.038915
-0.017578
0.005802
0.004768
0.000718
-0.011064
0.006347
0.019573
-0.014877
-0.010469
0.007576
0.002444
-0.001361
0.000098
-0.000414
-0.000915
-0.000051
0.002948
0.000058
-0.003204
-0.001692
0.004618
-0.000544
-0.004537
0.003478
0.005213
-0.003131
0.003337
-0.007985
-0.007486
0.014638
0.011155
-0.021799
-0.020678
0.033302
0.019872
-0.028096
-0.019627
0.018333
0.015048
-0.006715
-0.021930
0.019948
0.022891
-0.032767
-0.017746
0.036944
0.007706
-0.033102
-0.013227
0.034904
0.015639
-0.032069
0.003980
0.014743
-0.036425
0.012106
0.055128
-0.029323
-0.036768
0.016438
0.008187
0.001838
0.003190
-0.008957
0.008635
-0.000926
-0.012919
0.005287
0.008988
-0.004173
-0.000827
0.000480
0.000025
-0.000743
0.001068
-0.000060
0.001403
-0.004843
-0.000464
0.005650
0.000317
-0.006521
0.003912
0.005171
-0.003193
-0.005684
-0.008564
0.011626
0.013572
-0.009689
-0.023303
0.016621
0.031445
-0.021544
-0.030209
0.019236
0.016026
-0.004711
-0.009125
-0.002200
0.017617
-0.000300
-0.034830
0.006385
0.035261
0.000211
-0.034339
-0.003435
0.034150
0.001751
-0.032322
0.004855
0.015045
-0.009146
0.013054
0.002428
-0.027847
0.002970
0.018264
0.002639
0.003923
-0.014742
-0.006765
0.010297
0.001202
-0.003810
0.007211
-0.003785
-0.002835
0.001687
0.000917
-0.000235
-0.000221
-0.000934
0.001165
0.000712
-0.003298
-0.000195
0.007144
-0.004202
-0.005295
0.002767
0.006067
-0.002885
-0.005228
-0.002719
0.011562
0.009714
-0.010321
-0.018082
0.015477
0.018092
-0.023062
-0.010355
0.017400
0.009409
-0.006831
-0.007224
-0.004482
0.008800
-0.002534
-0.003684
0.004333
0.005263
-0.001673
-0.009736
-0.005103
0.017304
0.000520
-0.013237
0.004195
0.005360
-0.009300
0.006694
0.002789
-0.010055
0.003852
0.004017
0.003958
-0.007032
-0.013078
0.009156
0.012193
-0.003552
-0.001870
-0.008795
-0.002048
0.011435
0.002944
-0.007872
0.000320
0.001444
-0.000458
-0.000350
0.001951
-0.001096
0.001450
-0.002390
-0.002425
0.002809
0.004456
-0.003472
-0.001479
-0.000700
-0.001775
0.008998
0.010093
-0.026508
-0.018294
0.038649
0.017374
-0.040122
-0.011486
0.033762
0.007879
-0.024589
-0.009033
0.018987
0.006821
-0.009896
-0.005764
0.009431
0.003142
-0.003546
-0.011805
0.007695
0.015444
-0.012156
-0.014723
0.017346
0.004321
-0.013093
0.006100
0.001888
-0.010169
0.009680
0.004410
-0.013894
-0.006140
0.020075
0.010500
-0.023875
-0.001885
0.010683
-0.007037
0.001956
0.013096
-0.011244
-0.006547
0.006571
0.001912
-0.001380
0.000186
-0.001241
0.000199
0.001709
-0.000619
-0.005842
0.004823
0.003893
-0.001516
-0.008220
0.000967
0.006913
0.010283
-0.012313
-0.025651
0.021232
0.039045
-0.028154
-0.040232
0.034326
0.033080
-0.032846
-0.025813
0.030501
0.017399
-0.027464
-0.011760
0.023540
0.007304
-0.014637
-0.005868
0.004933
0.005391
0.004269
-0.014255
0.001938
0.015516
-0.008635
-0.014567
0.015545
0.000832
-0.007262
0.009063
-0.004840
-0.013997
0.013891
0.020545
-0.020052
-0.022900
0.017909
0.012001
-0.007328
0.003442
-0.008040
-0.009729
0.013150
0.007719
-0.009401
-0.000929
0.001927
-0.000719
-0.000476
0.003104
-0.000397
-0.003898
-0.000221
0.006102
-0.003774
-0.006046
0.005592
0.008921
-0.006590
-0.010509
0.003276
0.022708
-0.009523
-0.027145
0.013414
0.034759
-0.025549
-0.033042
0.027758
0.029669
-0.027290
-0.028847
0.032811
0.021717
-0.030505
-0.016767
0.024259
0.002610
-0.003357
0.001896
-0.010024
-0.000393
0.013706
-0.010858
-0.002180
0.013584
-0.008311
-0.008850
0.014885
-0.005968
-0.007744
0.013349
0.000175
-0.019997
0.008723
0.018475
-0.014506
-0.006314
0.011375
-0.006755
-0.003856
0.014498
-0.003239
-0.008271
0.002450
0.002473
-0.000751
0.000036
0.000205
0.000885
-0.003946
0.001634
0.003150
-0.001559
-0.001590
0.008016
-0.006811
-0.004122
0.006889
0.005549
-0.012078
-0.007656
0.013560
0.014773
-0.017681
-0.024714
0.022672
0.028065
-0.016884
-0.027572
0.007614
0.031922
-0.008609
-0.031947
0.020198
0.022423
-0.027189
-0.005439
0.024832
-0.012285
-0.013261
0.011300
0.010170
-0.004631
-0.005831
-0.010577
0.009128
0.012991
-0.006874
-0.009191
0.001979
-0.000791
0.004981
0.008241
-0.004638
-0.014472
0.005705
0.011963
-0.006648
-0.002897
0.003155
-0.002178
-0.001515
0.003367
-0.000257
-0.000444
0.000184
0.000633
-0.001799
-0.002721
0.005059
0.004896
-0.009422
0.000578
0.002642
-0.004351
-0.001521
0.009352
0.000793
-0.009845
-0.001165
0.015491
-0.003433
-0.016117
0.009116
0.023783
-0.015579
-0.016254
0.006479
0.007783
0.009987
-0.008945
-0.016326
0.019258
0.003843
-0.028715
0.011230
0.022849
-0.010388
-0.015560
0.008669
0.007710
-0.007753
-0.008344
0.012414
0.006735
-0.011580
-0.009013
0.013153
0.000114
-0.004453
0.003462
0.001260
-0.005639
-0.001873
0.005283
-0.000270
-0.006513
0.005178
0.003756
-0.007726
-0.000667
0.006905
0.000493
-0.004650
0.000543
0.000759
-0.001334
0.000690
0.006210
-0.005398
-0.007668
0.004431
0.004822
0.000655
0.000847
-0.005811
0.003225
0.001990
0.001219
-0.008504
-0.001227
0.006280
0.010979
-0.016976
-0.014212
0.011870
0.007323
0.004968
0.010346
-0.032049
-0.016486
0.046641
0.003113
-0.026946
0.009907
0.000767
-0.012255
0.012179
0.006418
-0.009509
-0.010171
0.015327
0.009893
-0.011329
-0.014093
0.011853
0.010771
-0.007575
-0.006598
0.004429
-0.000450
-0.001331
-0.002949
0.008562
-0.000791
-0.012706
0.005104
0.013718
-0.007333
-0.008356
0.007605
0.000946
-0.003898
0.001243
0.001088
-0.000309
0.001025
-0.001413
-0.004332
0.004562
0.006131
-0.005555
0.002768
-0.006075
-0.003420
0.002003
0.004625
0.010582
-0.005855
-0.026723
0.008751
0.034320
-0.014795
-0.018444
0.013655
0.002076
0.006199
-0.002207
-0.031505
0.013271
0.046513
-0.027742
-0.027567
0.017222
-0.000278
0.002522
0.010673
-0.001205
-0.011474
-0.011458
0.013013
0.015620
-0.013884
-0.010804
0.009260
0.005147
-0.010021
0.006287
0.002282
-0.007992
-0.003072
0.012483
0.007283
-0.012634
-0.013553
0.016264
0.013331
-0.017718
-0.008287
0.011893
0.001290
-0.002664
0.001665
-0.001688
-0.000147
0.000518
-0.001083
0.000469
0.005434
-0.004159
-0.004128
0.000667
-0.004218
0.008671
0.004188
-0.008797
0.013009
-0.007102
-0.024254
0.021282
0.036713
-0.038352
-0.016205
0.018863
0.004061
-0.000808
-0.000707
-0.010164
0.014127
0.003538
-0.027519
0.010296
0.016900
-0.007639
0.001686
-0.003794
-0.002538
0.003543
-0.013277
0.010613
0.013430
-0.009958
-0.013202
0.008978
0.002687
0.001020
0.003887
-0.006030
-0.010198
0.011675
0.010484
-0.011308
-0.014374
0.016538
0.015011
-0.024624
-0.018355
0.036654
0.011796
-0.033657
-0.002403
0.019180
-0.001322
-0.006460
0.000727
0.000956
0.000703
-0.000584
-0.003426
0.001707
0.001839
0.000331
0.010267
-0.010122
-0.006874
0.005906
-0.004943
0.004325
0.023485
-0.023853
-0.036188
0.036522
0.020825
-0.023146
0.000858
0.000418
-0.008781
0.015012
0.004639
-0.016864
0.010961
-0.000556
-0.007638
0.007791
-0.004492
-0.004138
0.002308
0.005734
0.008994
-0.009143
-0.011828
0.007424
0.006912
0.001285
-0.001234
-0.003887
-0.008332
0.005215
0.009529
0.001181
-0.013232
-0.004663
0.014911
0.005350
-0.025769
0.002516
0.035990
-0.014550
-0.033933
0.018601
0.019259
-0.011290
-0.006169
0.003674
0.001098
-0.000547
-0.000361
0.000589
0.002288
-0.004019
0.001281
0.002339
-0.008777
0.002997
0.007602
-0.006061
0.006267
0.000922
-0.021870
0.007432
0.038496
-0.020001
-0.021401
0.010262
0.001857
-0.001359
0.016252
-0.009875
-0.015869
0.007261
0.000050
0.010150
0.007881
-0.018057
-0.004541
0.014440
0.004949
-0.009935
-0.010267
0.009464
0.005955
-0.008638
-0.000480
0.006177
-0.005849
-0.001250
0.003215
-0.001172
-0.000719
0.005260
-0.006292
-0.000428
0.004066
0.003704
0.001535
-0.005791
-0.015330
0.015555
0.018116
-0.019032
-0.011447
0.013666
0.003709
-0.005741
-0.000531
0.001149
0.000705
-0.000698
-0.003616
0.003194
0.003112
-0.003580
0.004018
-0.002705
-0.004828
0.005540
0.002358
-0.008846
0.008980
0.003881
-0.018321
0.001891
0.011944
-0.001408
0.000151
-0.003250
-0.008696
0.006228
0.007953
-0.005132
0.010475
-0.008372
-0.017972
0.012502
0.014326
-0.009046
-0.010346
0.006317
0.008628
-0.005242
-0.009855
0.011756
0.004785
-0.007916
-0.002736
0.003694
-0.002785
0.008515
0.003572
-0.013782
-0.001937
0.010874
0.002449
-0.007686
-0.006836
0.006673
0.014832
-0.009788
-0.019293
0.012068
0.013664
-0.007234
-0.005665
0.002443
0.001257
-0.000475
-0.000608
0.000445
0.003601
-0.002961
-0.002980
0.002871
-0.001979
0.001230
0.006398
-0.006808
-0.007768
0.009117
0.005087
-0.008544
0.003168
0.002581
-0.000067
-0.004216
-0.001999
0.005944
0.007182
-0.010934
-0.004504
0.010142
-0.007948
-0.002019
0.012700
-0.002888
-0.009133
0.003403
0.005856
-0.003275
-0.006048
0.006353
0.010784
-0.012068
-0.008937
0.010006
0.002560
-0.002734
0.007269
-0.005532
-0.015044
0.009712
0.009690
-0.001201
-0.008818
-0.002405
0.005760
0.005410
-0.010318
-0.002381
0.011790
0.001377
-0.007382
-0.002053
0.002410
0.001568
-0.000542
-0.000285
0.000532
-0.000376
-0.002839
0.002072
0.003166
-0.003072
0.001751
0.000515
-0.006099
0.001546
0.009938
-0.003235
-0.007743
0.001988
0.003280
-0.000407
-0.003579
0.000946
0.006606
-0.003450
-0.010280
0.005630
0.010753
-0.006878
-0.001511
0.003785
-0.002696
-0.003195
0.003259
0.002944
-0.003579
-0.001082
0.005913
-0.002875
-0.012674
0.008823
0.009212
-0.007780
-0.003635
0.004541
-0.006343
0.002220
0.009014
-0.004974
-0.001884
0.002675
-0.003030
0.000304
0.004943
-0.002823
-0.002783
0.003622
0.000964
-0.003195
-0.002265
0.002959
0.001554
-0.001691
-0.000249
0.000327
-0.000438
0.000044
0.002118
-0.000494
-0.002883
0.000414
0.000759
0.000030
0.001859
-0.000628
-0.002920
0.000606
0.002361
-0.000569
0.000014
-0.000416
0.001237
-0.000128
-0.003014
0.000333
0.006070
-0.001459
-0.006640
0.001853
0.003922
-0.001423
-0.003102
0.001261
0.002932
-0.001203
-0.001078
0.000548
-0.003058
0.000815
0.008539
-0.002126
-0.008129
0.001972
0.004155
-0.000935
0.001828
-0.000288
-0.005428
0.001570
0.002225
-0.000458
0.000089
0.000005
-0.003145
0.001181
0.003323
-0.001085
-0.003246
0.000920
0.003027
-0.000707
-0.001672
0.000474
0.000321
-0.000086
0.000083
0.000021
-0.000411
0.000031
0.000478
-0.000026
0.000078
-0.000027
-0.000541
-0.000058
0.000731
-0.000035
-0.000373
0.000036
-0.000195
-0.000051
0.000036
0.000044
0.000509
0.000039
-0.001338
-0.000070
0.001866
-0.000058
-0.001413
0.000021
0.001327
-0.000036
-0.001184
0.000034
0.000509
-0.000027
0.000762
0.000011
-0.002166
0.000063
0.001919
0.000047
-0.001032
0.000025
-0.000481
0.000015
0.001329
-0.000044
-0.000639
0.000064
-0.000168
-0.000016
0.000983
-0.000039
-0.001124
0.000045
0.000914
0.000051
-0.000801
-0.000048
0.000438
-0.000006
-0.000086
0.000000
