# vtk DataFile Version 2.0
SquarePlate_mix
ASCII
DATASET POLYDATA
POINTS 961 float
0.000000 0.000000 0.000000
1.000000 0.000000 0.000000
1.000000 1.000000 0.000000
0.000000 1.000000 0.000000
0.033333 0.000000 0.000000
0.066667 0.000000 0.000000
0.100000 0.000000 0.000000
0.133333 0.000000 0.000000
0.166667 0.000000 0.000000
0.200000 0.000000 0.000000
0.233333 0.000000 0.000000
0.266667 0.000000 0.000000
0.300000 0.000000 0.000000
0.333333 0.000000 0.000000
0.366667 0.000000 0.000000
0.400000 0.000000 0.000000
0.433333 0.000000 0.000000
0.466667 0.000000 0.000000
0.500000 0.000000 0.000000
0.533333 0.000000 0.000000
0.566667 0.000000 0.000000
0.600000 0.000000 0.000000
0.633333 0.000000 0.000000
0.666667 0.000000 0.000000
0.700000 0.000000 0.000000
0.733333 0.000000 0.000000
0.766667 0.000000 0.000000
0.800000 0.000000 0.000000
0.833333 0.000000 0.000000
0.866667 0.000000 0.000000
0.900000 0.000000 0.000000
0.933333 0.000000 0.000000
0.966667 0.000000 0.000000
1.000000 0.033333 0.000000
1.000000 0.066667 0.000000
1.000000 0.100000 0.000000
1.000000 0.133333 0.000000
1.000000 0.166667 0.000000
1.000000 0.200000 0.000000
1.000000 0.233333 0.000000
1.000000 0.266667 0.000000
1.000000 0.300000 0.000000
1.000000 0.333333 0.000000
1.000000 0.366667 0.000000
1.000000 0.400000 0.000000
1.000000 0.433333 0.000000
1.000000 0.466667 0.000000
1.000000 0.500000 0.000000
1.000000 0.533333 0.000000
1.000000 0.566667 0.000000
1.000000 0.600000 0.000000
1.000000 0.633333 0.000000
1.000000 0.666667 0.000000
1.000000 0.700000 0.000000
1.000000 0.733333 0.000000
1.000000 0.766667 0.000000
1.000000 0.800000 0.000000
1.000000 0.833333 0.000000
1.000000 0.866667 0.000000
1.000000 0.900000 0.000000
1.000000 0.933333 0.000000
1.000000 0.966667 0.000000
0.966667 1.000000 0.000000
0.933333 1.000000 0.000000
0.900000 1.000000 0.000000
0.866667 1.000000 0.000000
0.833333 1.000000 0.000000
0.800000 1.000000 0.000000
0.766667 1.000000 0.000000
0.733333 1.000000 0.000000
0.700000 1.000000 0.000000
0.666667 1.000000 0.000000
0.633333 1.000000 0.000000
0.600000 1.000000 0.000000
0.566667 1.000000 0.000000
0.533333 1.000000 0.000000
0.500000 1.000000 0.000000
0.466667 1.000000 0.000000
0.433333 1.000000 0.000000
0.400000 1.000000 0.000000
0.366667 1.000000 0.000000
0.333333 1.000000 0.000000
0.300000 1.000000 0.000000
0.266667 1.000000 0.000000
0.233333 1.000000 0.000000
0.200000 1.000000 0.000000
0.166667 1.000000 0.000000
0.133333 1.000000 0.000000
0.100000 1.000000 0.000000
0.066667 1.000000 0.000000
0.033333 1.000000 0.000000
0.000000 0.966667 0.000000
0.000000 0.933333 0.000000
0.000000 0.900000 0.000000
0.000000 0.866667 0.000000
0.000000 0.833333 0.000000
0.000000 0.800000 0.000000
0.000000 0.766667 0.000000
0.000000 0.733333 0.000000
0.000000 0.700000 0.000000
0.000000 0.666667 0.000000
0.000000 0.633333 0.000000
0.000000 0.600000 0.000000
0.000000 0.566667 0.000000
0.000000 0.533333 0.000000
0.000000 0.500000 0.000000
0.000000 0.466667 0.000000
0.000000 0.433333 0.000000
0.000000 0.400000 0.000000
0.000000 0.366667 0.000000
0.000000 0.333333 0.000000
0.000000 0.300000 0.000000
0.000000 0.266667 0.000000
0.000000 0.233333 0.000000
0.000000 0.200000 0.000000
0.000000 0.166667 0.000000
0.000000 0.133333 0.000000
0.000000 0.100000 0.000000
0.000000 0.066667 0.000000
0.000000 0.033333 0.000000
0.033333 0.033333 0.000000
0.033333 0.066667 0.000000
0.033333 0.100000 0.000000
0.033333 0.133333 0.000000
0.033333 0.166667 0.000000
0.033333 0.200000 0.000000
0.033333 0.233333 0.000000
0.033333 0.266667 0.000000
0.033333 0.300000 0.000000
0.033333 0.333333 0.000000
0.033333 0.366667 0.000000
0.033333 0.400000 0.000000
0.033333 0.433333 0.000000
0.033333 0.466667 0.000000
0.033333 0.500000 0.000000
0.033333 0.533333 0.000000
0.033333 0.566667 0.000000
0.033333 0.600000 0.000000
0.033333 0.633333 0.000000
0.033333 0.666667 0.000000
0.033333 0.700000 0.000000
0.033333 0.733333 0.000000
0.033333 0.766667 0.000000
0.033333 0.800000 0.000000
0.033333 0.833333 0.000000
0.033333 0.866667 0.000000
0.033333 0.900000 0.000000
0.033333 0.933333 0.000000
0.033333 0.966667 0.000000
0.066667 0.033333 0.000000
0.066667 0.066667 0.000000
0.066667 0.100000 0.000000
0.066667 0.133333 0.000000
0.066667 0.166667 0.000000
0.066667 0.200000 0.000000
0.066667 0.233333 0.000000
0.066667 0.266667 0.000000
0.066667 0.300000 0.000000
0.066667 0.333333 0.000000
0.066667 0.366667 0.000000
0.066667 0.400000 0.000000
0.066667 0.433333 0.000000
0.066667 0.466667 0.000000
0.066667 0.500000 0.000000
0.066667 0.533333 0.000000
0.066667 0.566667 0.000000
0.066667 0.600000 0.000000
0.066667 0.633333 0.000000
0.066667 0.666667 0.000000
0.066667 0.700000 0.000000
0.066667 0.733333 0.000000
0.066667 0.766667 0.000000
0.066667 0.800000 0.000000
0.066667 0.833333 0.000000
0.066667 0.866667 0.000000
0.066667 0.900000 0.000000
0.066667 0.933333 0.000000
0.066667 0.966667 0.000000
0.100000 0.033333 0.000000
0.100000 0.066667 0.000000
0.100000 0.100000 0.000000
0.100000 0.133333 0.000000
0.100000 0.166667 0.000000
0.100000 0.200000 0.000000
0.100000 0.233333 0.000000
0.100000 0.266667 0.000000
0.100000 0.300000 0.000000
0.100000 0.333333 0.000000
0.100000 0.366667 0.000000
0.100000 0.400000 0.000000
0.100000 0.433333 0.000000
0.100000 0.466667 0.000000
0.100000 0.500000 0.000000
0.100000 0.533333 0.000000
0.100000 0.566667 0.000000
0.100000 0.600000 0.000000
0.100000 0.633333 0.000000
0.100000 0.666667 0.000000
0.100000 0.700000 0.000000
0.100000 0.733333 0.000000
0.100000 0.766667 0.000000
0.100000 0.800000 0.000000
0.100000 0.833333 0.000000
0.100000 0.866667 0.000000
0.100000 0.900000 0.000000
0.100000 0.933333 0.000000
0.100000 0.966667 0.000000
0.133333 0.033333 0.000000
0.133333 0.066667 0.000000
0.133333 0.100000 0.000000
0.133333 0.133333 0.000000
0.133333 0.166667 0.000000
0.133333 0.200000 0.000000
0.133333 0.233333 0.000000
0.133333 0.266667 0.000000
0.133333 0.300000 0.000000
0.133333 0.333333 0.000000
0.133333 0.366667 0.000000
0.133333 0.400000 0.000000
0.133333 0.433333 0.000000
0.133333 0.466667 0.000000
0.133333 0.500000 0.000000
0.133333 0.533333 0.000000
0.133333 0.566667 0.000000
0.133333 0.600000 0.000000
0.133333 0.633333 0.000000
0.133333 0.666667 0.000000
0.133333 0.700000 0.000000
0.133333 0.733333 0.000000
0.133333 0.766667 0.000000
0.133333 0.800000 0.000000
0.133333 0.833333 0.000000
0.133333 0.866667 0.000000
0.133333 0.900000 0.000000
0.133333 0.933333 0.000000
0.133333 0.966667 0.000000
0.166667 0.033333 0.000000
0.166667 0.066667 0.000000
0.166667 0.100000 0.000000
0.166667 0.133333 0.000000
0.166667 0.166667 0.000000
0.166667 0.200000 0.000000
0.166667 0.233333 0.000000
0.166667 0.266667 0.000000
0.166667 0.300000 0.000000
0.166667 0.333333 0.000000
0.166667 0.366667 0.000000
0.166667 0.400000 0.000000
0.166667 0.433333 0.000000
0.166667 0.466667 0.000000
0.166667 0.500000 0.000000
0.166667 0.533333 0.000000
0.166667 0.566667 0.000000
0.166667 0.600000 0.000000
0.166667 0.633333 0.000000
0.166667 0.666667 0.000000
0.166667 0.700000 0.000000
0.166667 0.733333 0.000000
0.166667 0.766667 0.000000
0.166667 0.800000 0.000000
0.166667 0.833333 0.000000
0.166667 0.866667 0.000000
0.166667 0.900000 0.000000
0.166667 0.933333 0.000000
0.166667 0.966667 0.000000
0.200000 0.033333 0.000000
0.200000 0.066667 0.000000
0.200000 0.100000 0.000000
0.200000 0.133333 0.000000
0.200000 0.166667 0.000000
0.200000 0.200000 0.000000
0.200000 0.233333 0.000000
0.200000 0.266667 0.000000
0.200000 0.300000 0.000000
0.200000 0.333333 0.000000
0.200000 0.366667 0.000000
0.200000 0.400000 0.000000
0.200000 0.433333 0.000000
0.200000 0.466667 0.000000
0.200000 0.500000 0.000000
0.200000 0.533333 0.000000
0.200000 0.566667 0.000000
0.200000 0.600000 0.000000
0.200000 0.633333 0.000000
0.200000 0.666667 0.000000
0.200000 0.700000 0.000000
0.200000 0.733333 0.000000
0.200000 0.766667 0.000000
0.200000 0.800000 0.000000
0.200000 0.833333 0.000000
0.200000 0.866667 0.000000
0.200000 0.900000 0.000000
0.200000 0.933333 0.000000
0.200000 0.966667 0.000000
0.233333 0.033333 0.000000
0.233333 0.066667 0.000000
0.233333 0.100000 0.000000
0.233333 0.133333 0.000000
0.233333 0.166667 0.000000
0.233333 0.200000 0.000000
0.233333 0.233333 0.000000
0.233333 0.266667 0.000000
0.233333 0.300000 0.000000
0.233333 0.333333 0.000000
0.233333 0.366667 0.000000
0.233333 0.400000 0.000000
0.233333 0.433333 0.000000
0.233333 0.466667 0.000000
0.233333 0.500000 0.000000
0.233333 0.533333 0.000000
0.233333 0.566667 0.000000
0.233333 0.600000 0.000000
0.233333 0.633333 0.000000
0.233333 0.666667 0.000000
0.233333 0.700000 0.000000
0.233333 0.733333 0.000000
0.233333 0.766667 0.000000
0.233333 0.800000 0.000000
0.233333 0.833333 0.000000
0.233333 0.866667 0.000000
0.233333 0.900000 0.000000
0.233333 0.933333 0.000000
0.233333 0.966667 0.000000
0.266667 0.033333 0.000000
0.266667 0.066667 0.000000
0.266667 0.100000 0.000000
0.266667 0.133333 0.000000
0.266667 0.166667 0.000000
0.266667 0.200000 0.000000
0.266667 0.233333 0.000000
0.266667 0.266667 0.000000
0.266667 0.300000 0.000000
0.266667 0.333333 0.000000
0.266667 0.366667 0.000000
0.266667 0.400000 0.000000
0.266667 0.433333 0.000000
0.266667 0.466667 0.000000
0.266667 0.500000 0.000000
0.266667 0.533333 0.000000
0.266667 0.566667 0.000000
0.266667 0.600000 0.000000
0.266667 0.633333 0.000000
0.266667 0.666667 0.000000
0.266667 0.700000 0.000000
0.266667 0.733333 0.000000
0.266667 0.766667 0.000000
0.266667 0.800000 0.000000
0.266667 0.833333 0.000000
0.266667 0.866667 0.000000
0.266667 0.900000 0.000000
0.266667 0.933333 0.000000
0.266667 0.966667 0.000000
0.300000 0.033333 0.000000
0.300000 0.066667 0.000000
0.300000 0.100000 0.000000
0.300000 0.133333 0.000000
0.300000 0.166667 0.000000
0.300000 0.200000 0.000000
0.300000 0.233333 0.000000
0.300000 0.266667 0.000000
0.300000 0.300000 0.000000
0.300000 0.333333 0.000000
0.300000 0.366667 0.000000
0.300000 0.400000 0.000000
0.300000 0.433333 0.000000
0.300000 0.466667 0.000000
0.300000 0.500000 0.000000
[...]
CELL_DATA 1800
SCALARS PRESSURE float 1
LOOKUP_TABLE default
0.000000
-0.000002
-0.000002
0.000008
-0.000000
0.000037
0.000001
-0.000048
-0.000008
-0.000045
0.000016
0.000037
0.000001
-0.000076
-0.000012
0.000012
-0.000000
0.000281
0.000048
0.000159
-0.000028
0.000237
0.000032
0.000280
-0.000050
0.000375
0.000063
0.000120
-0.000047
-0.000178
0.000073
-0.000362
-0.000023
-0.000546
0.000059
-0.000782
-0.000003
-0.000531
-0.000054
-0.000033
0.000010
0.000128
-0.000028
-0.000017
-0.000054
0.000112
0.000041
-0.000340
-0.000056
-0.000294
0.000025
-0.000029
-0.000024
0.000226
0.000012
0.000238
0.000014
0.000197
-0.000007
0.000052
0.000008
-0.000007
0.000029
-0.000087
-0.000116
0.000105
0.000060
0.000267
0.000165
-0.000199
-0.000212
0.000165
0.000160
0.000103
0.000201
-0.000759
-0.000308
-0.000795
-0.000390
-0.000213
-0.000004
-0.000990
-0.000544
-0.000662
-0.000260
-0.001065
-0.000896
0.000543
0.000407
-0.000215
-0.000396
0.000890
0.000670
0.000792
0.000763
0.000472
0.000822
-0.000580
0.000467
-0.001581
-0.000474
-0.001007
0.000182
-0.000899
-0.000290
-0.000440
0.000101
0.000116
0.000818
-0.000748
0.000090
-0.000833
-0.000125
-0.000905
-0.000304
-0.000465
-0.000402
0.000145
-0.000084
0.000022
-0.000012
0.000037
0.000020
0.000093
0.000216
-0.000353
-0.000519
0.000135
0.000013
0.000291
0.000286
-0.000752
-0.000728
0.000390
0.000545
0.000575
0.000986
-0.000044
0.000535
-0.000543
0.000386
0.000386
0.001118
-0.000200
0.000964
-0.000161
0.000944
-0.001988
-0.000719
-0.000193
0.001267
-0.003468
-0.001831
-0.001788
-0.000061
-0.002009
-0.000953
0.000116
0.001512
-0.000173
0.001463
-0.000518
0.001121
-0.000582
0.000707
-0.000487
0.000642
-0.001513
-0.000183
0.000071
0.000881
0.000246
0.001092
0.000089
0.000804
-0.000244
0.000062
-0.000273
0.000044
-0.000028
0.000015
-0.000093
0.000022
-0.000181
-0.000087
0.000362
0.000395
-0.000495
-0.000613
0.000495
0.000167
0.000872
0.000854
-0.000921
-0.001084
0.000080
-0.000405
0.000229
-0.000109
0.000723
0.000528
-0.000989
-0.000624
-0.000346
0.000294
-0.000825
-0.000052
0.001297
0.002131
-0.000819
-0.000450
0.003444
0.004592
-0.000573
0.000152
0.001948
0.002928
-0.001482
-0.000901
0.000352
0.001261
-0.001725
-0.000519
0.000446
0.001066
-0.000682
0.000389
0.001052
0.001797
-0.001468
-0.000556
-0.001170
-0.000317
-0.000471
-0.000246
0.000096
0.000446
-0.000090
0.000003
-0.000042
0.000046
0.000033
0.000140
-0.000113
-0.000287
0.000140
0.000071
0.000311
0.000048
-0.000334
-0.000592
-0.000189
-0.000643
0.001134
0.001064
-0.000521
-0.000756
0.000875
0.000490
-0.001062
-0.001303
0.001893
0.001834
-0.000405
0.000107
0.000176
0.001076
-0.002625
-0.001282
-0.000172
0.000830
-0.004589
-0.003777
0.001412
0.002265
-0.004572
-0.003693
0.002082
0.003196
-0.003089
-0.002005
0.002263
0.003284
-0.003129
-0.001590
0.000358
0.001545
-0.003430
-0.002111
0.001624
0.002685
-0.000203
0.000501
-0.000294
0.000484
-0.000654
-0.000206
-0.000047
0.000078
0.000011
0.000002
-0.000056
-0.000014
0.000116
0.000115
-0.000185
-0.000289
0.000104
0.000040
0.000227
-0.000191
0.000640
0.000182
-0.000458
-0.001070
0.000563
-0.000026
-0.000077
-0.000759
0.001888
0.000829
-0.001125
-0.001724
0.000617
0.000150
0.000929
0.001090
0.000847
0.001548
0.000494
0.001950
0.000965
0.002860
-0.001920
-0.000367
0.002991
0.004911
-0.004017
-0.002389
0.002296
0.004192
-0.004223
-0.002514
0.002594
0.003802
-0.002046
-0.000477
0.002760
0.003843
-0.003649
-0.002479
0.000124
0.000666
-0.000260
0.000349
-0.000026
0.000328
-0.000199
-0.000083
0.000038
-0.000009
0.000100
-0.000087
0.000146
0.000008
0.000510
-0.000060
0.000460
-0.000182
0.000767
-0.000245
0.000319
-0.000755
0.001573
0.000455
0.000578
-0.000001
0.000200
-0.000536
-0.000859
-0.001704
0.002715
0.001604
0.000036
-0.000993
-0.000595
-0.000886
0.000315
0.000022
-0.001991
-0.001735
0.000802
0.001068
-0.001214
-0.000339
-0.002272
-0.001875
0.002638
0.003101
-0.002403
-0.001966
0.002330
0.003020
-0.003234
-0.002399
0.001380
0.001487
-0.002694
-0.002269
0.003079
0.003247
-0.000799
-0.000521
0.000037
0.000139
-0.000095
-0.000088
0.000029
0.000009
-0.000071
-0.000024
-0.000109
0.000133
-0.000509
-0.000465
-0.000434
-0.000537
0.000115
-0.000835
-0.000421
-0.001270
0.001285
-0.000449
-0.000038
-0.001850
0.001602
-0.000599
0.001373
0.000163
0.001045
0.000134
-0.001926
-0.002862
0.001242
0.000506
0.001743
0.000968
-0.000948
-0.000737
0.003071
0.003473
-0.003322
-0.002016
0.001927
0.003658
-0.001334
0.000757
-0.003164
-0.001371
0.000616
0.002300
-0.002401
-0.001088
0.000899
0.002921
-0.002981
-0.001380
0.001632
0.002702
-0.004233
-0.003229
0.000632
0.001135
-0.001099
-0.000351
0.000167
0.000150
-0.000297
0.000138
-0.000149
0.000121
-0.000063
0.000155
0.000265
0.000697
-0.000227
-0.000172
-0.000116
0.000289
0.001025
0.000711
-0.001838
-0.001633
0.001066
0.000308
-0.000939
-0.001815
0.000275
-0.001171
0.000803
-0.000074
0.002199
0.001574
-0.000862
-0.001400
-0.001741
-0.001774
0.002427
0.002037
-0.004172
-0.003996
0.004491
0.004906
-0.004636
-0.003692
0.001849
0.003341
-0.000210
0.001871
-0.002360
-0.000851
0.000616
0.002224
-0.001969
-0.000773
0.001056
0.002576
-0.002779
-0.001552
0.002764
0.003567
-0.000813
-0.000148
0.000018
0.000126
0.000259
0.000393
0.000106
0.000118
0.000026
-0.000046
0.000104
0.000073
-0.000490
-0.000902
0.001167
0.000949
-0.000128
-0.001343
0.000164
-0.000731
0.003249
0.001527
-0.000355
-0.001571
0.002373
0.000570
0.001413
-0.000087
0.000245
-0.001576
0.000116
-0.001583
0.002476
0.001358
0.002668
0.001690
-0.002272
-0.002667
0.005058
0.004894
-0.005433
-0.005416
0.006087
0.006972
-0.004259
-0.003896
0.000883
0.002282
-0.000277
0.001058
-0.001295
0.000004
0.000177
0.001775
-0.002321
-0.001387
0.002020
0.003266
-0.004618
-0.004005
0.000841
0.001476
-0.000663
-0.000370
-0.000696
-0.000386
0.000089
-0.000142
0.000095
0.000005
-0.000077
-0.000285
0.001062
0.001076
-0.001991
-0.002094
0.001385
0.001344
-0.000694
-0.001338
-0.001627
-0.002550
0.001607
-0.000111
0.000204
-0.001161
-0.001489
-0.002993
0.003652
0.002067
-0.000654
-0.002090
0.000712
-0.000788
-0.002131
-0.002958
0.004006
0.003408
-0.005810
-0.005838
0.007500
0.007633
-0.008772
-0.008725
0.006457
0.007331
-0.004494
-0.003862
0.002207
0.003155
-0.002161
-0.001075
0.000784
0.001749
-0.000023
0.001242
-0.002428
-0.001368
0.003761
0.004728
-0.002148
-0.001551
0.001071
0.001499
-0.000436
-0.000040
-0.000018
-0.000029
0.000022
-0.000107
0.000263
-0.000062
-0.000836
-0.001218
0.002675
0.002121
-0.001075
-0.001939
0.001687
0.000978
0.001804
0.000816
-0.000048
-0.001532
0.000536
-0.001245
0.005353
0.003495
-0.005038
-0.006853
0.006768
0.004648
-0.002970
-0.004712
0.006881
0.004690
-0.004044
-0.005494
0.008113
0.007102
-0.008581
-0.009031
0.010773
0.010649
-0.008665
-0.008480
0.006624
0.006886
-0.005337
-0.005269
0.005077
0.005123
-0.003722
-0.003947
0.002409
0.002270
0.000112
-0.000010
-0.002314
-0.002197
0.000697
0.000773
-0.000678
-0.000601
0.000071
0.000086
-0.000227
-0.000040
-0.000021
-0.000061
-0.000150
-0.000452
0.001761
0.001588
-0.003352
-0.003601
0.001197
0.001072
-0.000192
-0.001011
-0.001235
-0.002391
0.002045
0.000765
0.000384
-0.001013
-0.003949
-0.005323
0.008383
0.006903
-0.008059
-0.008919
0.007405
0.006284
-0.008529
-0.009160
0.007568
0.006239
-0.007383
-0.008667
0.009538
0.008305
-0.008489
-0.009359
0.008292
0.008216
-0.006784
-0.006447
0.005595
0.006360
-0.007196
-0.006525
0.005318
0.006008
-0.005452
-0.004590
0.000799
0.001574
0.001082
0.001628
-0.000932
-0.000352
0.000219
0.000426
0.000102
0.000343
-0.000157
0.000125
-0.000121
-0.000013
0.000172
-0.000132
-0.001457
-0.002528
0.005291
0.004518
-0.000149
-0.000906
-0.001342
-0.001522
0.003123
0.002512
-0.001990
-0.003444
0.001876
0.000612
0.005604
0.003052
-0.006541
-0.008359
0.010487
0.007885
-0.006532
-0.008329
0.011168
0.009674
-0.007799
-0.008887
0.008100
0.007747
-0.007929
-0.008653
0.008044
0.007070
-0.006014
-0.006774
0.005999
0.005246
-0.004852
-0.004945
0.007404
0.007284
-0.007294
-0.007244
0.007795
0.007911
-0.003006
-0.003396
0.000222
0.000193
0.000790
0.000180
-0.000164
-0.000343
0.000280
-0.000061
0.000251
0.000019
0.000162
-0.000006
-0.000135
-0.000025
0.001469
0.001486
-0.004992
-0.006114
0.002096
0.000841
0.002818
0.001750
-0.003203
-0.004144
0.003378
0.003125
-0.001921
-0.002774
-0.005137
-0.005466
0.008529
0.007425
-0.009970
-0.010528
0.009067
0.007438
-0.010097
-0.011940
0.011134
0.009178
-0.006199
-0.008284
0.007796
0.006759
-0.005284
-0.006624
0.005564
0.004550
-0.002937
-0.004030
0.004330
0.003241
-0.004970
-0.006133
0.008349
0.007402
-0.008612
-0.009219
0.005491
0.005177
-0.001762
-0.002249
0.000778
0.000646
-0.000028
-0.000301
-0.000095
-0.000194
-0.000019
-0.000195
-0.000101
0.000031
-0.000023
0.000168
-0.001748
-0.001448
0.004251
0.004412
-0.001875
-0.001915
-0.002400
-0.002901
0.004488
0.004312
-0.004147
-0.004902
0.003971
0.003840
0.004778
0.003488
-0.006260
-0.007258
0.009788
0.008436
-0.007023
-0.008039
0.010879
0.010016
-0.009990
-0.011585
0.006927
0.006075
-0.004203
-0.006127
0.004261
0.003109
-0.002020
-0.003734
0.001899
0.000707
-0.000678
-0.001609
0.002435
0.001649
-0.005102
-0.005632
0.008033
0.007326
-0.005117
-0.005403
0.002814
0.002206
-0.001134
-0.001368
0.000657
0.000293
0.000177
-0.000192
0.000376
0.000253
0.000086
0.000068
0.000037
0.000282
0.000977
0.001064
-0.004048
-0.003458
0.000989
0.001012
0.002138
0.002286
-0.004598
-0.004758
0.005228
0.005121
-0.005145
-0.005001
-0.003661
-0.003695
0.005457
0.005400
-0.007948
-0.008645
0.006596
0.005351
-0.008056
-0.009763
0.010573
0.008999
-0.005289
-0.007156
0.006147
0.004521
-0.002455
-0.003934
0.002962
0.001802
-0.000683
-0.002125
0.002381
0.000595
-0.000189
-0.001480
0.005062
0.003260
-0.005892
-0.006762
0.005628
0.004149
-0.001907
-0.002413
0.001564
0.000750
-0.000290
-0.000657
0.000440
0.000017
-0.000360
-0.000309
-0.000036
-0.000214
0.000226
-0.000405
0.000670
0.000617
0.002036
0.002187
0.000459
0.001175
-0.003238
-0.002773
0.004541
0.005522
-0.006533
-0.005939
0.005900
0.006176
0.002135
0.002700
-0.004562
-0.004270
0.006424
0.006582
-0.005304
-0.005536
0.007403
0.006682
-0.007504
-0.008492
0.005489
0.003735
-0.003660
-0.005497
0.004037
0.001431
0.000216
-0.001593
0.001491
-0.000494
0.000193
-0.001384
0.000420
-0.001274
-0.001548
-0.002575
0.005176
0.004094
-0.003982
-0.004217
0.001899
0.001232
-0.000555
-0.000621
0.000189
-0.000178
0.000068
0.000091
0.000440
0.000282
-0.000020
-0.000036
-0.000155
-0.000683
0.000042
-0.000912
0.000004
-0.000637
-0.001650
-0.002381
0.004516
0.004171
-0.005307
-0.005105
0.006507
0.006807
-0.006808
-0.006390
-0.001526
-0.000674
0.002576
0.003293
-0.006198
-0.006265
0.005263
0.005526
-0.007596
-0.008113
0.007892
0.007382
-0.005746
-0.006620
0.006643
0.005712
-0.005512
-0.006873
0.004058
0.002343
-0.002100
-0.003989
0.003648
0.001350
0.000928
-0.001266
0.002198
0.000178
-0.001290
-0.003270
0.004081
0.002413
-0.000194
-0.001009
0.000759
-0.000234
0.000818
0.000414
-0.000020
-0.000482
-0.000134
-0.000211
0.000109
0.000112
-0.000005
0.000357
-0.000690
-0.000471
0.000161
0.000811
0.000870
0.001015
-0.003986
-0.002731
0.003687
0.004558
-0.007011
-0.005913
0.006616
0.007557
-0.001242
0.000018
-0.002723
-0.001490
0.004877
0.005895
-0.006070
-0.005616
0.008391
0.008329
-0.008883
-0.009253
0.007981
0.006916
-0.006938
-0.008478
0.009181
0.007938
-0.005572
-0.006548
0.005669
0.003923
-0.004693
-0.006129
0.003578
0.001851
-0.001584
-0.003110
0.003218
0.001275
-0.001877
-0.003267
0.001187
0.000132
0.000050
-0.000153
-0.000706
-0.000883
0.000166
0.000383
0.000190
0.000047
-0.000080
-0.000097
0.000203
-0.000057
0.001130
0.001408
-0.001572
-0.002025
0.001787
0.002087
0.000307
0.000949
-0.001909
-0.000411
0.002615
0.004244
-0.006497
-0.005173
0.000962
0.002175
-0.000035
0.001150
-0.005494
-0.003851
0.003921
0.005057
-0.009503
-0.008416
0.008527
0.009303
-0.009765
-0.009351
0.007966
0.007413
-0.008397
-0.009620
0.006871
0.004848
-0.003319
-0.005167
0.006284
0.004775
-0.002906
-0.004408
0.002911
0.001798
-0.001632
-0.003462
0.003070
0.001609
0.000863
-0.000870
0.000702
-0.000320
0.001732
0.001023
-0.000431
-0.000564
-0.000037
0.000005
0.000135
-0.000070
-0.000183
-0.000035
-0.001187
-0.001156
0.001884
0.001751
-0.003546
-0.002852
0.001942
0.002355
-0.001798
-0.000894
-0.000456
0.001675
-0.000011
0.001849
-0.000920
0.000970
-0.001548
-0.000357
0.003122
0.004928
-0.004411
-0.002855
0.006148
0.007507
-0.008649
-0.007423
0.008288
0.009362
-0.009076
-0.008326
0.007794
0.008360
-0.007225
-0.007952
0.005273
0.003994
-0.005275
-0.006937
0.005212
0.004296
-0.002780
-0.003584
0.002096
0.002069
-0.002325
-0.003103
0.000234
0.000136
-0.000563
-0.000986
-0.000594
-0.000762
0.000553
0.000602
-0.000258
-0.000128
-0.000143
0.000207
-0.000054
0.000175
0.000644
0.000229
-0.000494
0.000136
0.002323
0.003164
-0.003650
-0.002652
0.002727
0.003713
-0.003056
-0.001329
0.000536
0.002656
-0.002596
-0.000947
0.000286
0.001999
-0.003388
-0.002537
0.002267
0.003399
-0.005712
-0.004518
0.005866
0.006760
-0.007097
-0.006309
0.006312
0.006889
-0.006732
-0.006406
0.006214
0.006416
-0.005267
-0.005315
0.005830
0.004897
-0.003232
-0.004932
0.004535
0.002880
-0.000573
-0.002223
0.003038
0.001965
0.000903
-0.000270
0.001190
0.000640
0.000521
0.000145
0.000134
-0.000232
0.000344
0.000238
0.000080
-0.000047
-0.000007
-0.000095
-0.000274
-0.000640
0.000310
0.000378
-0.001769
-0.001655
0.002839
0.002956
-0.003285
-0.002678
0.003803
0.004012
-0.002795
-0.001860
0.001932
0.003345
-0.002119
-0.001157
0.001995
0.002872
-0.002078
-0.001711
0.004313
0.004346
-0.004936
-0.004789
0.005631
0.005464
-0.004625
-0.005252
0.005660
0.004639
-0.002718
-0.004380
0.005565
0.004443
-0.004663
-0.005619
0.003549
0.002274
-0.002368
-0.003907
0.001873
0.000860
-0.001789
-0.003043
0.000124
-0.000719
0.000174
-0.000498
-0.000393
-0.000565
-0.000096
-0.000064
-0.000270
-0.000236
-0.000071
0.000018
0.000109
0.000057
0.000030
0.000764
-0.000684
-0.000112
0.000961
0.001515
-0.002708
-0.001754
0.001829
0.002243
-0.004314
-0.003455
0.002550
0.003547
-0.003428
-0.002231
0.000765
0.002498
-0.003621
-0.001940
-0.000438
0.001078
-0.004557
-0.003013
0.002519
0.003313
-0.005432
-0.004473
0.002924
0.003668
-0.005409
-0.005211
0.001400
0.001335
-0.004260
-0.004357
0.004603
0.004176
-0.003133
-0.003232
0.002947
0.002463
-0.001328
-0.001933
0.002960
0.002612
-0.000090
-0.000939
0.000601
0.000498
0.000738
0.000302
0.000235
0.000280
0.000374
0.000223
0.000104
-0.000128
0.000030
0.000095
0.000097
0.000436
-0.000534
0.000109
-0.001030
-0.000189
0.000867
0.001526
-0.001906
-0.000686
0.001770
0.002963
-0.002565
-0.001481
0.000727
0.002276
-0.001030
-0.000022
0.001475
0.002888
-0.000410
0.001567
0.001105
0.002643
-0.002548
-0.000466
0.002122
0.003542
-0.002874
-0.001484
0.002835
0.004051
-0.000947
-0.000086
0.001882
0.002214
-0.003137
-0.002755
0.001995
0.001659
-0.001843
-0.001909
0.000892
0.000759
-0.002487
-0.003286
0.001638
0.000970
-0.000450
-0.001329
0.000128
0.000051
-0.000449
-0.000644
-0.000062
-0.000308
0.000048
0.000140
-0.000272
0.000175
-0.000946
-0.000076
0.000448
0.000947
-0.000916
-0.000067
-0.000173
0.000447
-0.000268
0.000602
-0.000967
0.000042
-0.000707
0.000898
-0.000129
0.000894
-0.002169
-0.000895
-0.000914
0.000056
-0.001563
-0.001193
-0.000232
0.000751
-0.000439
0.000188
-0.000756
-0.000196
-0.000248
0.000342
-0.000950
-0.000909
-0.001158
-0.000879
0.000269
0.000545
0.000641
0.000463
-0.000112
0.000170
0.000415
0.000240
0.000322
0.000642
0.001279
0.001192
-0.001082
-0.001223
0.001036
0.000715
0.000345
-0.000059
0.000453
0.000279
0.000086
0.000151
-0.000049
0.000165
-0.000014
0.000743
-0.000254
0.000239
-0.001181
0.000092
-0.000087
0.000756
-0.001029
-0.000061
-0.000337
0.000517
-0.000076
0.000780
-0.000145
0.000514
-0.000845
0.000489
0.000606
0.002180
-0.000858
0.000966
-0.000339
0.001473
-0.000732
0.000366
-0.000429
0.000544
-0.000075
0.000618
0.000001
0.000610
-0.000247
0.000998
0.000357
0.001357
-0.001937
-0.000918
-0.000341
0.000417
-0.001056
-0.000413
-0.000493
0.000266
-0.001310
-0.001303
-0.000162
-0.000091
0.000130
0.000408
-0.001177
-0.001171
0.000027
-0.000336
0.000048
-0.000119
-0.000132
-0.000043
-0.000016
-0.000051
0.000066
-0.000072
0.000393
0.000677
0.000422
0.000721
-0.000192
0.000431
-0.000028
0.000901
-0.000419
0.000300
-0.000744
-0.000230
0.000293
0.000685
-0.000248
0.000090
-0.000307
0.000125
-0.000416
0.000423
-0.000208
0.000464
-0.000824
0.000175
-0.000191
0.000419
-0.000446
-0.000404
0.000065
0.000376
0.000051
-0.000299
0.000013
0.000412
0.001171
0.001159
-0.000024
0.000532
0.000361
0.001004
-0.000093
0.000573
0.000333
0.000877
-0.000171
0.000177
-0.000084
0.000326
0.000635
0.000757
-0.000252
-0.000011
0.000200
0.000242
-0.000052
0.000078
-0.000044
-0.000030
0.000001
-0.000183
-0.000015
-0.000340
0.000002
-0.000068
0.000022
0.000121
-0.000066
0.000053
0.000088
0.000432
0.000025
0.000098
0.000003
0.000111
0.000018
0.000278
0.000001
0.000420
-0.000046
0.000298
0.000014
0.000509
0.000035
0.000499
-0.000026
0.000149
0.000128
0.000435
-0.000101
-0.000134
0.000088
0.000207
-0.000070
-0.000536
-0.000013
-0.000294
0.000030
-0.000085
-0.000079
-0.000251
0.000075
-0.000057
-0.000050
-0.000162
0.000079
0.000075
-0.000025
-0.000355
0.000025
-0.000032
0.000005
-0.000125
0.000003
-0.000041
0.000003
0.000003
0.000000
