# vtk DataFile Version 2.0
SquarePlate_mix
ASCII
DATASET POLYDATA
POINTS 1681 float
0.000000 0.000000 0.000000
1.000000 0.000000 0.000000
1.000000 1.000000 0.000000
0.000000 1.000000 0.000000
0.025000 0.000000 0.000000
0.050000 0.000000 0.000000
0.075000 0.000000 0.000000
0.100000 0.000000 0.000000
0.125000 0.000000 0.000000
0.150000 0.000000 0.000000
0.175000 0.000000 0.000000
0.200000 0.000000 0.000000
0.225000 0.000000 0.000000
0.250000 0.000000 0.000000
0.275000 0.000000 0.000000
0.300000 0.000000 0.000000
0.325000 0.000000 0.000000
0.350000 0.000000 0.000000
0.375000 0.000000 0.000000
0.400000 0.000000 0.000000
0.425000 0.000000 0.000000
0.450000 0.000000 0.000000
0.475000 0.000000 0.000000
0.500000 0.000000 0.000000
0.525000 0.000000 0.000000
0.550000 0.000000 0.000000
0.575000 0.000000 0.000000
0.600000 0.000000 0.000000
0.625000 0.000000 0.000000
0.650000 0.000000 0.000000
0.675000 0.000000 0.000000
0.700000 0.000000 0.000000
0.725000 0.000000 0.000000
0.750000 0.000000 0.000000
0.775000 0.000000 0.000000
0.800000 0.000000 0.000000
0.825000 0.000000 0.000000
0.850000 0.000000 0.000000
0.875000 0.000000 0.000000
0.900000 0.000000 0.000000
0.925000 0.000000 0.000000
0.950000 0.000000 0.000000
0.975000 0.000000 0.000000
1.000000 0.025000 0.000000
1.000000 0.050000 0.000000
1.000000 0.075000 0.000000
1.000000 0.100000 0.000000
1.000000 0.125000 0.000000
1.000000 0.150000 0.000000
1.000000 0.175000 0.000000
1.000000 0.200000 0.000000
1.000000 0.225000 0.000000
1.000000 0.250000 0.000000
1.000000 0.275000 0.000000
1.000000 0.300000 0.000000
1.000000 0.325000 0.000000
1.000000 0.350000 0.000000
1.000000 0.375000 0.000000
1.000000 0.400000 0.000000
1.000000 0.425000 0.000000
1.000000 0.450000 0.000000
1.000000 0.475000 0.000000
1.000000 0.500000 0.000000
1.000000 0.525000 0.000000
1.000000 0.550000 0.000000
1.000000 0.575000 0.000000
1.000000 0.600000 0.000000
1.000000 0.625000 0.000000
1.000000 0.650000 0.000000
1.000000 0.675000 0.000000
1.000000 0.700000 0.000000
1.000000 0.725000 0.000000
1.000000 0.750000 0.000000
1.000000 0.775000 0.000000
1.000000 0.800000 0.000000
1.000000 0.825000 0.000000
1.000000 0.850000 0.000000
1.000000 0.875000 0.000000
1.000000 0.900000 0.000000
1.000000 0.925000 0.000000
1.000000 0.950000 0.000000
1.000000 0.975000 0.000000
0.975000 1.000000 0.000000
0.950000 1.000000 0.000000
0.925000 1.000000 0.000000
0.900000 1.000000 0.000000
0.875000 1.000000 0.000000
0.850000 1.000000 0.000000
0.825000 1.000000 0.000000
0.800000 1.000000 0.000000
0.775000 1.000000 0.000000
0.750000 1.000000 0.000000
0.725000 1.000000 0.000000
0.700000 1.000000 0.000000
0.675000 1.000000 0.000000
0.650000 1.000000 0.000000
0.625000 1.000000 0.000000
0.600000 1.000000 0.000000
0.575000 1.000000 0.000000
0.550000 1.000000 0.000000
0.525000 1.000000 0.000000
0.500000 1.000000 0.000000
0.475000 1.000000 0.000000
0.450000 1.000000 0.000000
0.425000 1.000000 0.000000
0.400000 1.000000 0.000000
0.375000 1.000000 0.000000
0.350000 1.000000 0.000000
0.325000 1.000000 0.000000
0.300000 1.000000 0.000000
0.275000 1.000000 0.000000
0.250000 1.000000 0.000000
0.225000 1.000000 0.000000
0.200000 1.000000 0.000000
0.175000 1.000000 0.000000
0.150000 1.000000 0.000000
0.125000 1.000000 0.000000
0.100000 1.000000 0.000000
0.075000 1.000000 0.000000
0.050000 1.000000 0.000000
0.025000 1.000000 0.000000
0.000000 0.975000 0.000000
0.000000 0.950000 0.000000
0.000000 0.925000 0.000000
0.000000 0.900000 0.000000
0.000000 0.875000 0.000000
0.000000 0.850000 0.000000
0.000000 0.825000 0.000000
0.000000 0.800000 0.000000
0.000000 0.775000 0.000000
0.000000 0.750000 0.000000
0.000000 0.725000 0.000000
0.000000 0.700000 0.000000
0.000000 0.675000 0.000000
0.000000 0.650000 0.000000
0.000000 0.625000 0.000000
0.000000 0.600000 0.000000
0.000000 0.575000 0.000000
0.000000 0.550000 0.000000
0.000000 0.525000 0.000000
0.000000 0.500000 0.000000
0.000000 0.475000 0.000000
0.000000 0.450000 0.000000
0.000000 0.425000 0.000000
0.000000 0.400000 0.000000
0.000000 0.375000 0.000000
0.000000 0.350000 0.000000
0.000000 0.325000 0.000000
0.000000 0.300000 0.000000
0.000000 0.275000 0.000000
0.000000 0.250000 0.000000
0.000000 0.225000 0.000000
0.000000 0.200000 0.000000
0.000000 0.175000 0.000000
0.000000 0.150000 0.000000
0.000000 0.125000 0.000000
0.000000 0.100000 0.000000
0.000000 0.075000 0.000000
0.000000 0.050000 0.000000
0.000000 0.025000 0.000000
0.025000 0.025000 0.000000
0.025000 0.050000 0.000000
0.025000 0.075000 0.000000
0.025000 0.100000 0.000000
0.025000 0.125000 0.000000
0.025000 0.150000 0.000000
0.025000 0.175000 0.000000
0.025000 0.200000 0.000000
0.025000 0.225000 0.000000
0.025000 0.250000 0.000000
0.025000 0.275000 0.000000
0.025000 0.300000 0.000000
0.025000 0.325000 0.000000
0.025000 0.350000 0.000000
0.025000 0.375000 0.000000
0.025000 0.400000 0.000000
0.025000 0.425000 0.000000
0.025000 0.450000 0.000000
0.025000 0.475000 0.000000
0.025000 0.500000 0.000000
0.025000 0.525000 0.000000
0.025000 0.550000 0.000000
0.025000 0.575000 0.000000
0.025000 0.600000 0.000000
0.025000 0.625000 0.000000
0.025000 0.650000 0.000000
0.025000 0.675000 0.000000
0.025000 0.700000 0.000000
0.025000 0.725000 0.000000
0.025000 0.750000 0.000000
0.025000 0.775000 0.000000
0.025000 0.800000 0.000000
0.025000 0.825000 0.000000
0.025000 0.850000 0.000000
0.025000 0.875000 0.000000
0.025000 0.900000 0.000000
0.025000 0.925000 0.000000
0.025000 0.950000 0.000000
0.025000 0.975000 0.000000
0.050000 0.025000 0.000000
0.050000 0.050000 0.000000
0.050000 0.075000 0.000000
0.050000 0.100000 0.000000
0.050000 0.125000 0.000000
0.050000 0.150000 0.000000
0.050000 0.175000 0.000000
0.050000 0.200000 0.000000
0.050000 0.225000 0.000000
0.050000 0.250000 0.000000
0.050000 0.275000 0.000000
0.050000 0.300000 0.000000
0.050000 0.325000 0.000000
0.050000 0.350000 0.000000
0.050000 0.375000 0.000000
0.050000 0.400000 0.000000
0.050000 0.425000 0.000000
0.050000 0.450000 0.000000
0.050000 0.475000 0.000000
0.050000 0.500000 0.000000
0.050000 0.525000 0.000000
0.050000 0.550000 0.000000
0.050000 0.575000 0.000000
0.050000 0.600000 0.000000
0.050000 0.625000 0.000000
0.050000 0.650000 0.000000
0.050000 0.675000 0.000000
0.050000 0.700000 0.000000
0.050000 0.725000 0.000000
0.050000 0.750000 0.000000
0.050000 0.775000 0.000000
0.050000 0.800000 0.000000
0.050000 0.825000 0.000000
0.050000 0.850000 0.000000
0.050000 0.875000 0.000000
0.050000 0.900000 0.000000
0.050000 0.925000 0.000000
0.050000 0.950000 0.000000
0.050000 0.975000 0.000000
0.075000 0.025000 0.000000
0.075000 0.050000 0.000000
0.075000 0.075000 0.000000
0.075000 0.100000 0.000000
0.075000 0.125000 0.000000
0.075000 0.150000 0.000000
0.075000 0.175000 0.000000
0.075000 0.200000 0.000000
0.075000 0.225000 0.000000
0.075000 0.250000 0.000000
0.075000 0.275000 0.000000
0.075000 0.300000 0.000000
0.075000 0.325000 0.000000
0.075000 0.350000 0.000000
0.075000 0.375000 0.000000
0.075000 0.400000 0.000000
0.075000 0.425000 0.000000
0.075000 0.450000 0.000000
0.075000 0.475000 0.000000
0.075000 0.500000 0.000000
0.075000 0.525000 0.000000
0.075000 0.550000 0.000000
0.075000 0.575000 0.000000
0.075000 0.600000 0.000000
0.075000 0.625000 0.000000
0.075000 0.650000 0.000000
0.075000 0.675000 0.000000
0.075000 0.700000 0.000000
0.075000 0.725000 0.000000
0.075000 0.750000 0.000000
0.075000 0.775000 0.000000
0.075000 0.800000 0.000000
0.075000 0.825000 0.000000
0.075000 0.850000 0.000000
0.075000 0.875000 0.000000
0.075000 0.900000 0.000000
0.075000 0.925000 0.000000
0.075000 0.950000 0.000000
0.075000 0.975000 0.000000
0.100000 0.025000 0.000000
0.100000 0.050000 0.000000
0.100000 0.075000 0.000000
0.100000 0.100000 0.000000
0.100000 0.125000 0.000000
0.100000 0.150000 0.000000
0.100000 0.175000 0.000000
0.100000 0.200000 0.000000
0.100000 0.225000 0.000000
0.100000 0.250000 0.000000
0.100000 0.275000 0.000000
0.100000 0.300000 0.000000
0.100000 0.325000 0.000000
0.100000 0.350000 0.000000
0.100000 0.375000 0.000000
0.100000 0.400000 0.000000
0.100000 0.425000 0.000000
0.100000 0.450000 0.000000
0.100000 0.475000 0.000000
0.100000 0.500000 0.000000
0.100000 0.525000 0.000000
0.100000 0.550000 0.000000
0.100000 0.575000 0.000000
0.100000 0.600000 0.000000
0.100000 0.625000 0.000000
0.100000 0.650000 0.000000
0.100000 0.675000 0.000000
0.100000 0.700000 0.000000
0.100000 0.725000 0.000000
0.100000 0.750000 0.000000
0.100000 0.775000 0.000000
0.100000 0.800000 0.000000
0.100000 0.825000 0.000000
0.100000 0.850000 0.000000
0.100000 0.875000 0.000000
0.100000 0.900000 0.000000
0.100000 0.925000 0.000000
0.100000 0.950000 0.000000
0.100000 0.975000 0.000000
0.125000 0.025000 0.000000
0.125000 0.050000 0.000000
0.125000 0.075000 0.000000
0.125000 0.100000 0.000000
0.125000 0.125000 0.000000
0.125000 0.150000 0.000000
0.125000 0.175000 0.000000
0.125000 0.200000 0.000000
0.125000 0.225000 0.000000
0.125000 0.250000 0.000000
0.125000 0.275000 0.000000
0.125000 0.300000 0.000000
0.125000 0.325000 0.000000
0.125000 0.350000 0.000000
0.125000 0.375000 0.000000
0.125000 0.400000 0.000000
0.125000 0.425000 0.000000
0.125000 0.450000 0.000000
0.125000 0.475000 0.000000
0.125000 0.500000 0.000000
0.125000 0.525000 0.000000
0.125000 0.550000 0.000000
0.125000 0.575000 0.000000
0.125000 0.600000 0.000000
0.125000 0.625000 0.000000
0.125000 0.650000 0.000000
0.125000 0.675000 0.000000
0.125000 0.700000 0.000000
0.125000 0.725000 0.000000
0.125000 0.750000 0.000000
0.125000 0.775000 0.000000
0.125000 0.800000 0.000000
0.125000 0.825000 0.000000
0.125000 0.850000 0.000000
0.125000 0.875000 0.000000
0.125000 0.900000 0.000000
0.125000 0.925000 0.000000
0.125000 0.950000 0.000000
0.125000 0.975000 0.000000
0.150000 0.025000 0.000000
0.150000 0.050000 0.000000
0.150000 0.075000 0.000000
0.150000 0.100000 0.000000
0.150000 0.125000 0.000000
0.150000 0.150000 0.000000
0.150000 0.175000 0.000000
0.150000 0.200000 0.000000
0.150000 0.225000 0.000000
0.150000 0.250000 0.000000
0.150000 0.275000 0.000000
0.150000 0.300000 0.000000
[...]
CELL_DATA 3200
SCALARS PRESSURE float 1
LOOKUP_TABLE default
0.000000
-0.000001
-0.000004
0.000010
-0.000003
-0.000010
0.000009
-0.000000
-0.000003
-0.000005
0.000023
-0.000028
-0.000011
0.000047
-0.000012
-0.000023
-0.000018
0.000063
0.000007
-0.000078
0.000016
0.000044
-0.000005
-0.000050
0.000004
0.000071
-0.000058
0.000013
0.000038
-0.000081
0.000025
0.000054
-0.000052
0.000022
-0.000009
0.000001
-0.000011
0.000033
-0.000051
0.000055
0.000046
-0.000146
0.000008
0.000171
-0.000019
-0.000216
0.000092
0.000133
-0.000041
-0.000144
0.000052
0.000128
-0.000068
-0.000088
0.000065
0.000044
-0.000057
0.000014
-0.000016
0.000028
0.000005
-0.000036
-0.000055
0.000156
-0.000016
-0.000184
0.000126
0.000011
-0.000028
-0.000012
0.000032
-0.000012
-0.000002
-0.000023
0.000024
0.000005
-0.000026
0.000027
-0.000010
-0.000001
-0.000001
-0.000002
-0.000005
0.000029
-0.000004
-0.000040
0.000030
-0.000012
0.000029
-0.000027
-0.000002
-0.000026
0.000082
-0.000059
-0.000100
0.000187
0.000056
-0.000198
-0.000067
0.000138
0.000104
-0.000130
-0.000186
0.000263
0.000011
-0.000123
-0.000140
0.000412
-0.000130
-0.000286
0.000180
0.000029
-0.000084
0.000140
-0.000133
0.000091
0.000004
-0.000060
-0.000076
0.000297
-0.000115
-0.000343
0.000232
0.000216
-0.000268
0.000013
0.000244
-0.000296
0.000067
-0.000004
0.000108
0.000002
-0.000139
0.000176
-0.000013
-0.000198
0.000008
0.000346
-0.000134
-0.000154
-0.000050
0.000188
0.000056
-0.000053
-0.000017
-0.000123
0.000199
-0.000269
0.000273
-0.000190
0.000081
-0.000056
0.000081
0.000006
-0.000046
0.000002
-0.000035
0.000142
-0.000090
0.000005
0.000002
-0.000025
0.000045
0.000017
-0.000084
0.000042
0.000058
-0.000075
-0.000040
0.000073
0.000106
-0.000257
-0.000064
0.000286
0.000215
-0.000541
-0.000251
0.000793
0.000073
-0.000614
-0.000240
0.000681
-0.000004
-0.000194
-0.000245
0.000277
0.000179
-0.000073
-0.000705
0.000995
-0.000048
-0.000750
0.000209
0.000275
0.000068
-0.000258
-0.000273
0.000548
0.000056
-0.000372
-0.000257
0.000616
0.000018
-0.000535
0.000088
0.000494
-0.000466
0.000210
0.000115
-0.000283
0.000091
-0.000254
0.000235
0.000220
-0.000362
0.000109
0.000444
-0.000715
0.000026
0.000415
0.000132
-0.000479
0.000299
-0.000235
-0.000008
0.000253
0.000057
-0.000431
0.000129
0.000077
0.000275
-0.000533
0.000203
0.000127
-0.000077
-0.000069
0.000042
0.000089
-0.000068
-0.000008
-0.000011
0.000014
0.000008
-0.000033
-0.000106
0.000371
0.000080
-0.000742
0.000192
0.000705
-0.000212
-0.000706
0.000446
0.000407
-0.000753
0.000311
0.000445
-0.000159
-0.000920
0.000759
0.000693
-0.000912
-0.000524
0.001128
0.000005
-0.000639
-0.000443
0.000894
0.000335
-0.000322
-0.000993
0.000893
0.000013
0.000052
-0.000319
-0.000367
0.000264
0.001154
-0.000743
-0.000726
0.000454
0.000660
-0.000377
-0.000704
0.000200
0.000838
0.000162
-0.001263
-0.000143
0.001270
-0.000218
-0.000554
0.000408
-0.000451
0.000312
0.000475
-0.000432
-0.000495
0.000847
-0.000517
-0.000067
0.000369
0.000015
-0.000352
0.000438
-0.000220
-0.000132
-0.000019
0.000595
-0.000594
-0.000376
0.000649
0.000281
-0.000771
0.000350
0.000024
0.000182
-0.000196
0.000065
-0.000005
0.000001
-0.000015
-0.000060
0.000079
0.000349
-0.000359
-0.000692
0.000818
0.000802
-0.001406
-0.000557
0.001337
0.000365
-0.001308
0.000089
0.000939
-0.000430
-0.000216
0.000262
0.000483
-0.001145
0.000389
0.000769
-0.000143
-0.001032
0.000333
0.000532
0.000521
-0.001143
0.000015
0.000329
0.000786
-0.000338
-0.000771
-0.000443
0.001347
0.000785
-0.001711
-0.001269
0.002561
0.000584
-0.002242
-0.000942
0.002493
0.001005
-0.002542
-0.001551
0.003302
0.001612
-0.004386
-0.000559
0.003753
-0.000060
-0.002746
0.000567
0.001463
-0.000420
-0.000765
0.000151
0.000340
0.000668
-0.001152
0.000112
0.000054
0.000380
-0.000259
0.000072
-0.000220
-0.000093
-0.000269
0.001087
-0.000709
-0.000313
0.000561
0.000161
-0.000774
0.000369
-0.000030
-0.000006
0.000018
-0.000012
-0.000043
0.000180
-0.000039
-0.000490
0.000447
0.000750
-0.000740
-0.001318
0.001419
0.001460
-0.002024
-0.001022
0.001640
0.000796
-0.001072
-0.000764
0.001184
-0.000207
-0.000105
-0.000097
0.000503
-0.000817
0.000420
-0.000049
-0.000017
0.000079
0.000036
-0.000931
0.001565
0.000465
-0.001491
-0.001427
0.002572
0.001311
-0.003091
-0.001991
0.004274
0.001885
-0.004085
-0.002480
0.004393
0.002236
-0.004163
-0.002723
0.004227
0.003155
-0.004102
-0.004001
0.004843
0.003891
-0.005168
-0.002340
0.003504
0.001979
-0.002596
-0.000789
0.001690
0.000816
-0.001839
-0.000717
0.001812
0.000762
-0.002084
0.000588
0.000493
0.000213
-0.000796
0.000775
-0.000230
-0.000141
-0.000610
0.000904
-0.000023
-0.000448
0.000263
0.000230
-0.000343
0.000181
0.000019
0.000020
-0.000018
-0.000123
0.000184
0.000490
-0.000694
-0.000960
0.001286
0.001390
-0.001739
-0.001947
0.002278
0.001787
-0.002379
-0.001389
0.001848
0.000843
-0.000640
-0.000973
0.000606
-0.000025
0.000312
-0.000617
0.000822
-0.000645
0.000243
-0.000351
0.000365
0.000346
0.000409
-0.002403
0.001153
0.002132
-0.001410
-0.003256
0.002369
0.003942
-0.003495
-0.004738
0.005187
0.003975
-0.005335
-0.004206
0.006111
0.004035
-0.005595
-0.004450
0.005982
0.005152
-0.007553
-0.004431
0.006995
0.003884
-0.005942
-0.001781
0.003046
0.001859
-0.002186
-0.001450
0.000799
0.002364
-0.001428
-0.001816
0.000732
0.001522
-0.000409
-0.000322
-0.001124
0.000668
0.000322
0.000414
-0.000948
0.000760
-0.000442
0.000137
-0.000104
0.000203
-0.000450
0.000245
0.000014
-0.000002
-0.000049
0.000255
-0.000191
-0.000721
0.000679
0.001365
-0.001454
-0.002036
0.002583
0.002030
-0.002877
-0.002236
0.002990
0.001683
-0.002662
-0.001360
0.003012
-0.000230
-0.001048
0.000007
0.000570
-0.000345
0.000538
-0.000850
0.000673
-0.000217
0.000145
-0.000913
0.001040
0.000347
0.000176
-0.002466
0.001408
0.002008
-0.000936
-0.003662
0.002473
0.004531
-0.003045
-0.005474
0.004251
0.006046
-0.004941
-0.005542
0.004169
0.006136
-0.004778
-0.007348
0.006045
0.007474
-0.006859
-0.005288
0.004934
0.004121
-0.004152
-0.001808
0.001833
0.001436
-0.001007
-0.000886
0.000190
0.001304
-0.000470
0.000386
-0.001335
-0.000758
0.002196
0.001471
-0.003159
-0.000092
0.000750
0.000420
-0.000419
0.000256
-0.000030
0.000129
-0.000373
0.000306
0.000025
-0.000010
0.000162
-0.000080
-0.000460
0.000808
0.000176
-0.001619
0.000396
0.002593
-0.001695
-0.003232
0.002873
0.002672
-0.002559
-0.002726
0.002212
0.002764
-0.002016
-0.002332
0.002641
-0.000166
-0.000831
-0.000398
0.001335
-0.000749
0.000159
-0.000800
0.001653
-0.000466
-0.000299
-0.001013
0.001281
0.000345
-0.000053
-0.001534
0.000488
0.002077
-0.000892
-0.003737
0.002871
0.003666
-0.003336
-0.004763
0.004067
0.004459
-0.003856
-0.004681
0.003671
0.006278
-0.005383
-0.005895
0.005364
0.005316
-0.004867
-0.002708
0.002074
0.002871
-0.002079
-0.000206
-0.000306
0.000972
-0.000033
0.000119
-0.001609
-0.000193
0.001641
0.002562
-0.003958
-0.002174
0.004219
0.001311
-0.003032
0.000708
0.000100
0.000143
0.000030
0.000168
-0.000764
0.000506
0.000009
0.000033
0.000194
-0.000226
-0.000376
0.000169
0.000282
0.000565
-0.000686
-0.001884
0.001739
0.002734
-0.002773
-0.003139
0.003908
0.001938
-0.002677
-0.002272
0.002353
0.001570
-0.001330
-0.001260
0.001402
0.000175
0.000003
-0.001043
0.000659
0.000582
-0.000013
-0.002151
0.002237
0.000115
-0.000356
-0.001589
0.001481
-0.000467
0.000675
-0.001333
0.000277
0.002475
-0.001283
-0.004144
0.003418
0.004037
-0.003468
-0.003940
0.002842
0.004405
-0.003148
-0.005140
0.003751
0.006006
-0.004623
-0.004138
0.002818
0.003244
-0.002830
-0.001048
0.000305
0.000873
-0.000597
0.000846
-0.000765
-0.000745
0.000829
0.002731
-0.003089
-0.003410
0.003869
0.005542
-0.006903
-0.002354
0.003688
0.000896
-0.001938
0.000131
0.001147
-0.000295
-0.000863
0.000578
0.000042
-0.000019
0.000330
-0.000219
-0.000524
0.000587
0.000127
-0.000903
0.000212
0.001693
-0.000802
-0.002655
0.001338
0.003261
-0.001660
-0.003305
0.002102
0.002308
-0.001392
-0.002060
0.001832
0.000347
-0.000673
-0.000670
0.001214
-0.000585
0.000325
-0.000795
0.000620
0.000295
0.000611
-0.001877
0.001413
-0.000281
0.000322
-0.000528
0.000896
-0.000593
0.000130
-0.001703
0.001277
0.002999
-0.002335
-0.003851
0.003642
0.003055
-0.003041
-0.002964
0.002277
0.004379
-0.003520
-0.003705
0.002673
0.003341
-0.002518
-0.001427
0.000549
0.001574
-0.000353
0.000712
-0.001419
0.000309
0.000123
0.001642
-0.002331
-0.001743
0.002847
0.004554
-0.004977
-0.005067
0.004462
0.004479
-0.003270
-0.000888
-0.000515
0.001570
0.000528
-0.001008
-0.000288
0.000512
-0.000020
0.000045
0.000254
-0.000569
0.000043
0.000182
-0.000100
0.000475
-0.000606
-0.001126
0.001359
0.001682
-0.002099
-0.002072
0.002669
0.001460
-0.001550
-0.001966
0.001500
0.001211
-0.000930
-0.000842
0.000935
0.000249
0.000035
-0.001271
0.001552
-0.000032
-0.000649
-0.000989
0.001792
-0.000092
-0.000138
-0.001215
0.000907
-0.000688
0.001205
-0.001209
0.000919
0.000628
-0.000604
-0.003118
0.002816
0.003352
-0.003570
-0.003293
0.003237
0.002516
-0.002105
-0.003141
0.001851
0.003509
-0.002160
-0.001524
0.000248
0.001586
-0.000758
0.000641
-0.001694
-0.000168
0.000377
0.001801
-0.002083
-0.001361
0.002509
0.003908
-0.005597
-0.004521
0.006223
0.006350
-0.008322
-0.002260
0.003867
0.000625
-0.001630
0.000754
-0.000102
-0.000092
-0.000100
0.000163
0.000036
-0.000029
0.000229
-0.000072
-0.000344
0.000197
0.000068
-0.000563
0.000210
0.001266
-0.000824
-0.002017
0.001523
0.002552
-0.002226
-0.002001
0.002194
0.001132
-0.000632
-0.001711
0.001558
0.000219
-0.000962
-0.000621
0.001543
0.000257
-0.000851
-0.001463
0.002527
0.000455
-0.002261
-0.001367
0.003645
-0.000651
-0.000948
-0.000113
0.001075
-0.000352
-0.000389
-0.001719
0.002459
0.002118
-0.002402
-0.004359
0.004899
0.003026
-0.004284
-0.002171
0.003229
0.002342
-0.002996
-0.001520
0.001524
0.000890
-0.001295
0.000590
-0.000752
-0.000389
0.000879
0.001543
-0.000873
-0.000722
-0.001437
0.004037
-0.002143
-0.004621
0.003752
0.006974
-0.006241
-0.006730
0.004887
0.004971
-0.003531
-0.000544
-0.000552
0.001037
0.000473
-0.000299
-0.000362
0.000350
-0.000012
0.000035
0.000107
-0.000419
0.000159
-0.000010
-0.000086
0.000470
-0.000488
-0.000764
0.000608
0.001713
-0.001361
-0.002578
0.002726
0.002025
-0.002649
-0.001253
0.001005
0.001018
0.000004
-0.001628
0.000872
0.001244
-0.000557
-0.002214
0.002162
0.001651
-0.001781
-0.003319
0.003720
0.002099
-0.002401
-0.002567
0.003197
-0.000201
-0.000204
-0.001859
0.002041
0.001656
-0.002228
-0.003388
0.003809
0.003976
-0.004437
-0.004705
0.005295
0.003209
-0.004001
-0.002868
0.002874
0.002168
-0.001917
-0.000327
0.000015
0.000394
-0.000203
0.001955
-0.002470
0.000107
-0.000164
0.000017
0.000930
-0.000624
-0.000844
0.004595
-0.002575
-0.005862
0.004155
0.006633
-0.005994
-0.002321
0.002699
0.000683
-0.001338
0.001338
-0.000952
0.000054
0.000107
0.000171
-0.000029
-0.000022
0.000071
-0.000018
-0.000221
0.000189
-0.000046
-0.000486
0.000404
0.000709
-0.000967
-0.000959
0.000967
0.002637
-0.002669
-0.002602
0.003967
0.000642
-0.001735
-0.000474
0.001202
0.000190
-0.000933
-0.000901
0.001519
0.001076
-0.001366
-0.002815
0.003543
0.002391
-0.003214
-0.003678
0.005203
0.001906
-0.003652
-0.001731
0.003528
0.000852
-0.001978
-0.003293
0.003802
0.003184
-0.003878
-0.005186
0.006508
0.004267
-0.005914
-0.003933
0.004535
0.003018
-0.003113
-0.001725
0.001434
0.000560
-0.000787
0.000903
-0.001183
-0.000961
0.000831
0.001051
-0.000180
0.001813
-0.003524
0.000720
0.000846
-0.001836
0.000893
0.004273
-0.002990
-0.004718
0.002305
0.003983
-0.002677
-0.000175
0.000017
0.000476
-0.000576
0.000502
0.000153
-0.000085
0.000049
0.000012
-0.000040
-0.000076
-0.000126
0.000268
-0.000459
0.000337
0.000216
-0.000468
-0.000421
0.001082
0.000477
-0.002555
0.000465
0.004196
-0.002936
-0.002162
0.001456
0.000730
0.000565
-0.001801
0.000996
0.001003
-0.000499
-0.002361
0.002107
0.002507
-0.002154
-0.003972
0.002967
0.003970
-0.002435
-0.005247
0.004787
0.002436
-0.002765
-0.003501
0.003901
0.003022
-0.003528
-0.004717
0.004997
0.005975
-0.006938
-0.006904
0.009004
0.003954
-0.006448
-0.003331
0.004960
0.001365
-0.002146
-0.000079
-0.000346
-0.000208
0.001297
0.001786
-0.003347
0.001259
-0.000516
-0.002301
0.001763
0.002613
-0.002653
0.002011
-0.001368
-0.002626
0.002122
0.003175
-0.002351
-0.001431
0.000715
0.000966
-0.000541
0.000514
-0.001094
0.000650
0.000084
0.000080
-0.000034
0.000001
-0.000007
0.000035
-0.000358
0.000446
-0.000707
0.000111
0.000938
-0.000515
-0.000980
0.001201
0.000109
0.000132
-0.000180
-0.002487
0.002408
0.001100
-0.001316
0.000286
-0.000308
0.000164
0.000241
-0.000817
0.000345
0.001326
-0.000694
-0.002963
0.002809
0.002051
-0.001576
-0.003399
0.002647
0.003677
-0.003090
-0.003928
0.004351
0.002533
-0.002716
-0.004708
0.004560
0.003974
-0.003836
-0.007268
0.007734
0.007708
-0.009175
-0.006659
0.008179
0.004802
-0.006190
-0.002518
0.003910
-0.000237
-0.001266
0.002058
-0.001670
-0.002429
0.002303
0.000506
-0.000772
0.003092
-0.002505
-0.001194
0.000076
0.000321
-0.000027
0.002484
-0.001444
-0.001922
0.000554
0.001755
-0.001572
0.000420
0.000394
-0.000135
-0.000968
0.000976
0.000137
-0.000140
0.000052
0.000032
-0.000035
-0.000224
0.000155
0.000180
-0.001212
0.001348
-0.000184
-0.000448
0.000035
0.000328
-0.000328
-0.000769
0.000765
0.002428
-0.002748
-0.001441
0.002031
-0.000472
0.000575
-0.000074
-0.000379
-0.000205
0.001012
-0.001109
-0.000066
0.002118
-0.000625
-0.002186
0.000712
0.001984
-0.000115
-0.004323
0.003133
0.003145
-0.002698
-0.003891
0.002996
0.003687
-0.002141
-0.005260
0.003191
0.007392
-0.005710
-0.010290
0.009934
0.007112
-0.007965
-0.006056
0.006842
0.003356
-0.004510
-0.001185
0.002355
-0.001320
-0.000547
0.002922
-0.001165
-0.000070
-0.001343
-0.001680
0.001932
0.001227
-0.001202
0.001754
-0.002194
-0.000361
0.000653
0.001058
0.000142
-0.000942
-0.000589
0.001400
-0.000321
-0.000169
-0.000823
0.000951
-0.000245
0.000169
-0.000019
0.000006
-0.000140
0.000092
0.000017
-0.000183
-0.000389
0.000517
0.000063
-0.000129
-0.000225
0.001003
-0.001206
0.000750
0.000604
-0.002445
0.000786
0.002039
-0.000635
0.000550
-0.001453
-0.000913
0.002165
0.000843
-0.001946
-0.000403
0.002017
-0.001077
-0.000638
0.000133
0.001949
-0.000797
-0.001378
0.002274
-0.000149
-0.003629
0.002915
0.001628
-0.001435
-0.002960
0.002766
0.002002
-0.000777
-0.006233
0.003163
0.008634
-0.004999
-0.009035
0.006783
0.006462
-0.005311
-0.005173
0.004017
0.002359
-0.001763
-0.000501
0.000750
-0.000559
-0.000884
-0.000938
0.001728
0.003090
-0.003166
-0.000521
0.000522
-0.000749
0.000421
0.001678
-0.001968
0.000961
-0.000463
-0.000230
0.000067
0.000597
-0.000492
-0.000140
0.000290
0.000491
-0.000600
0.000277
0.000048
-0.000046
-0.000052
0.000297
-0.000679
0.000261
-0.000031
0.001126
-0.001954
0.000014
0.002011
-0.000493
-0.002168
0.000900
0.001071
0.001478
-0.002657
-0.000422
0.001784
-0.001705
0.000741
0.002086
-0.001416
-0.002364
0.002014
0.001607
-0.001878
-0.000988
0.001944
0.001506
-0.002756
-0.001744
0.003590
-0.000656
-0.001552
0.001718
0.000076
-0.002518
0.001780
0.001487
-0.001005
-0.002232
0.001132
0.002656
-0.001342
-0.005711
0.004350
0.004774
-0.003622
-0.005666
0.004579
0.003021
-0.002149
-0.002105
0.000817
0.000543
-0.000803
-0.000181
0.001410
0.002070
-0.003436
-0.002290
0.002722
0.000774
-0.001270
0.001944
-0.002209
-0.001022
0.002098
0.000565
-0.001815
0.000549
0.000879
0.000582
-0.001852
0.000648
0.000703
-0.000304
-0.000360
0.000353
-0.000016
0.000035
-0.000090
0.000066
-0.000660
0.000644
-0.000018
-0.001112
0.000456
0.002132
-0.002204
-0.000875
0.001527
0.001639
-0.001808
-0.002050
0.001665
0.002219
-0.001959
0.000917
-0.000643
-0.001503
0.001745
0.001929
-0.002224
-0.001891
0.002694
0.001310
-0.001961
-0.003078
0.004255
0.003057
-0.004831
-0.002108
0.004497
-0.000559
-0.001280
0.000479
0.000496
-0.001622
0.001754
-0.000478
0.000671
-0.001536
-0.000128
0.003263
-0.000608
-0.005056
0.003032
0.004171
-0.002995
-0.003545
0.002257
0.000486
0.000942
-0.001295
0.000699
0.001641
-0.002918
-0.003335
0.004782
0.003689
-0.005559
-0.000774
0.003312
-0.001350
-0.001084
0.002781
-0.001643
-0.000671
0.000665
0.001009
-0.001240
-0.000954
0.000553
0.001421
-0.000917
-0.000028
0.000192
0.000074
0.000015
-0.000055
0.000252
-0.000111
-0.001134
0.001017
-0.000232
0.001379
-0.001606
-0.001479
0.002047
0.002277
-0.003182
-0.001425
0.002400
0.002873
-0.004604
-0.000969
0.003159
-0.000716
-0.000374
0.001975
-0.001423
-0.002200
0.002028
0.002712
-0.002866
-0.002129
0.003307
0.004048
-0.005174
-0.005584
0.007026
0.003899
-0.006665
-0.002104
0.005711
-0.000088
-0.002829
0.000724
0.001837
-0.000871
-0.000826
-0.000541
0.001358
-0.000933
0.000201
0.001174
0.000388
-0.003668
0.001818
0.001207
0.000554
-0.000224
-0.001518
-0.000067
0.000907
-0.002981
0.002823
0.004622
-0.005160
-0.005198
0.005309
0.003259
-0.004348
-0.000201
0.001314
-0.000957
-0.000304
0.001923
-0.001327
-0.000864
0.000946
0.001734
-0.001335
-0.000554
0.000127
0.000386
0.000019
-0.000090
0.000041
0.000060
0.000041
-0.000386
-0.000229
0.000994
-0.001169
-0.000685
0.000982
0.002512
-0.002506
-0.002076
0.001881
0.003528
-0.003139
-0.004022
0.004016
0.004593
-0.005802
0.000137
0.002142
-0.001333
-0.000125
0.002228
-0.001222
-0.002415
0.001879
0.002893
-0.001934
-0.005512
0.003289
0.007143
-0.005022
-0.007418
0.006893
0.005376
-0.005118
-0.004089
0.003705
0.001634
-0.001278
-0.002879
0.003309
0.001090
-0.003086
-0.000181
0.002788
-0.001597
-0.000825
0.001402
0.000113
-0.001204
0.000003
-0.002554
0.003627
-0.000259
-0.000885
0.002419
-0.002217
-0.005767
0.005339
0.005595
-0.005734
-0.003878
0.004231
0.001512
-0.001598
0.000261
-0.000716
-0.000118
0.001101
0.001282
-0.002679
-0.000458
0.001733
0.000487
-0.001289
0.000284
0.000503
-0.000054
-0.000039
-0.000038
0.000097
0.000118
-0.000722
0.000144
-0.000026
0.002156
-0.002409
-0.001643
0.002411
0.002655
-0.003106
-0.002183
0.001473
0.005109
-0.003838
-0.004114
0.002759
0.002849
-0.001539
0.000153
-0.000418
-0.000806
0.001309
0.002232
-0.003118
-0.001566
0.002854
0.003272
-0.003717
-0.004860
0.004842
0.005842
-0.004949
-0.005633
0.005912
0.002981
-0.003563
-0.001547
0.001234
0.001436
0.001051
-0.003933
0.000585
0.002846
-0.000983
-0.002470
0.002469
-0.000704
0.000261
-0.000934
0.000913
0.002459
-0.001695
-0.002384
0.002213
-0.003036
0.002182
0.004801
-0.003992
-0.006157
0.005401
0.004405
-0.004727
-0.001620
0.002745
-0.000449
-0.001149
0.002059
-0.000956
-0.002522
0.001989
0.002742
-0.002731
-0.000696
0.001011
0.000620
-0.000471
-0.000064
0.000059
0.000023
0.000094
-0.000345
-0.000410
0.000807
-0.000295
-0.001225
0.000194
0.003380
-0.002692
-0.002282
0.002287
0.003046
-0.003657
-0.003128
0.003854
0.004282
-0.005561
0.000125
0.001724
-0.000126
-0.001093
0.001692
-0.000302
-0.002520
0.000733
0.003127
-0.000925
-0.004115
0.001209
0.005699
-0.003137
-0.005374
0.003840
0.005285
-0.004058
-0.004713
0.003606
0.001105
-0.000495
-0.000416
0.000553
-0.001227
0.001235
-0.000745
-0.000260
0.000189
0.001046
-0.000312
-0.000782
-0.000654
0.001796
-0.003108
0.001163
0.001025
0.000685
0.001132
-0.001934
-0.004880
0.004624
0.004765
-0.004740
-0.004452
0.004225
0.002633
-0.002331
-0.001128
0.000522
-0.000014
0.000221
0.002008
-0.001857
-0.002089
0.001970
0.001494
-0.001833
-0.000072
0.000782
-0.000035
-0.000086
-0.000036
0.000073
-0.000013
-0.000573
0.000514
-0.000061
0.001230
-0.000891
-0.001262
-0.000213
0.003244
-0.000883
-0.002856
0.000484
0.005308
-0.002821
-0.004162
0.002006
0.003150
-0.001982
-0.000215
-0.000330
0.000701
0.000228
0.000958
-0.001237
-0.000223
0.000143
0.001189
0.000114
-0.002479
0.000804
0.003905
-0.002291
-0.004250
0.003398
0.002803
-0.002028
-0.000290
-0.000964
-0.000623
0.003059
-0.000689
-0.001334
-0.000725
0.001471
-0.000715
0.000907
-0.001860
0.001144
0.000336
-0.000077
0.000077
0.000763
-0.001028
-0.000340
-0.002919
0.003196
0.003644
-0.003579
-0.005461
0.005645
0.004163
-0.005624
-0.002556
0.004700
0.000413
-0.002381
0.000965
0.000143
-0.001632
0.000733
0.002409
-0.001431
-0.001127
0.000511
0.000942
-0.000355
-0.000229
0.000107
0.000005
-0.000044
-0.000141
-0.000235
0.000577
-0.000678
-0.000279
0.000525
0.000628
-0.001125
0.000475
-0.000585
0.001293
-0.000747
-0.001542
0.000436
0.003459
-0.002362