# vtk DataFile Version 2.0
SquarePlate_mix
ASCII
DATASET POLYDATA
POINTS 441 float
0.000000 0.000000 0.000000
1.000000 0.000000 0.000000
1.000000 1.000000 0.000000
0.000000 1.000000 0.000000
0.050000 0.000000 0.000000
0.100000 0.000000 0.000000
0.150000 0.000000 0.000000
0.200000 0.000000 0.000000
0.250000 0.000000 0.000000
0.300000 0.000000 0.000000
0.350000 0.000000 0.000000
0.400000 0.000000 0.000000
0.450000 0.000000 0.000000
0.500000 0.000000 0.000000
0.550000 0.000000 0.000000
0.600000 0.000000 0.000000
0.650000 0.000000 0.000000
0.700000 0.000000 0.000000
0.750000 0.000000 0.000000
0.800000 0.000000 0.000000
0.850000 0.000000 0.000000
0.900000 0.000000 0.000000
0.950000 0.000000 0.000000
1.000000 0.050000 0.000000
1.000000 0.100000 0.000000
1.000000 0.150000 0.000000
1.000000 0.200000 0.000000
1.000000 0.250000 0.000000
1.000000 0.300000 0.000000
1.000000 0.350000 0.000000
1.000000 0.400000 0.000000
1.000000 0.450000 0.000000
1.000000 0.500000 0.000000
1.000000 0.550000 0.000000
1.000000 0.600000 0.000000
1.000000 0.650000 0.000000
1.000000 0.700000 0.000000
1.000000 0.750000 0.000000
1.000000 0.800000 0.000000
1.000000 0.850000 0.000000
1.000000 0.900000 0.000000
1.000000 0.950000 0.000000
0.950000 1.000000 0.000000
0.900000 1.000000 0.000000
0.850000 1.000000 0.000000
0.800000 1.000000 0.000000
0.750000 1.000000 0.000000
0.700000 1.000000 0.000000
0.650000 1.000000 0.000000
0.600000 1.000000 0.000000
0.550000 1.000000 0.000000
0.500000 1.000000 0.000000
0.450000 1.000000 0.000000
0.400000 1.000000 0.000000
0.350000 1.000000 0.000000
0.300000 1.000000 0.000000
0.250000 1.000000 0.000000
0.200000 1.000000 0.000000
0.150000 1.000000 0.000000
0.100000 1.000000 0.000000
0.050000 1.000000 0.000000
0.000000 0.950000 0.000000
0.000000 0.900000 0.000000
0.000000 0.850000 0.000000
0.000000 0.800000 0.000000
0.000000 0.750000 0.000000
0.000000 0.700000 0.000000
0.000000 0.650000 0.000000
0.000000 0.600000 0.000000
0.000000 0.550000 0.000000
0.000000 0.500000 0.000000
0.000000 0.450000 0.000000
0.000000 0.400000 0.000000
0.000000 0.350000 0.000000
0.000000 0.300000 0.000000
0.000000 0.250000 0.000000
0.000000 0.200000 0.000000
0.000000 0.150000 0.000000
0.000000 0.100000 0.000000
0.000000 0.050000 0.000000
0.050000 0.050000 0.000000
0.050000 0.100000 0.000000
0.050000 0.150000 0.000000
0.050000 0.200000 0.000000
0.050000 0.250000 0.000000
0.050000 0.300000 0.000000
0.050000 0.350000 0.000000
0.050000 0.400000 0.000000
0.050000 0.450000 0.000000
0.050000 0.500000 0.000000
0.050000 0.550000 0.000000
0.050000 0.600000 0.000000
0.050000 0.650000 0.000000
0.050000 0.700000 0.000000
0.050000 0.750000 0.000000
0.050000 0.800000 0.000000
0.050000 0.850000 0.000000
0.050000 0.900000 0.000000
0.050000 0.950000 0.000000
0.100000 0.050000 0.000000
0.100000 0.100000 0.000000
0.100000 0.150000 0.000000
0.100000 0.200000 0.000000
0.100000 0.250000 0.000000
0.100000 0.300000 0.000000
0.100000 0.350000 0.000000
0.100000 0.400000 0.000000
0.100000 0.450000 0.000000
0.100000 0.500000 0.000000
0.100000 0.550000 0.000000
0.100000 0.600000 0.000000
0.100000 0.650000 0.000000
0.100000 0.700000 0.000000
0.100000 0.750000 0.000000
0.100000 0.800000 0.000000
0.100000 0.850000 0.000000
0.100000 0.900000 0.000000
0.100000 0.950000 0.000000
0.150000 0.050000 0.000000
0.150000 0.100000 0.000000
0.150000 0.150000 0.000000
0.150000 0.200000 0.000000
0.150000 0.250000 0.000000
0.150000 0.300000 0.000000
0.150000 0.350000 0.000000
0.150000 0.400000 0.000000
0.150000 0.450000 0.000000
0.150000 0.500000 0.000000
0.150000 0.550000 0.000000
0.150000 0.600000 0.000000
0.150000 0.650000 0.000000
0.150000 0.700000 0.000000
0.150000 0.750000 0.000000
0.150000 0.800000 0.000000
0.150000 0.850000 0.000000
0.150000 0.900000 0.000000
0.150000 0.950000 0.000000
0.200000 0.050000 0.000000
0.200000 0.100000 0.000000
0.200000 0.150000 0.000000
0.200000 0.200000 0.000000
0.200000 0.250000 0.000000
0.200000 0.300000 0.000000
0.200000 0.350000 0.000000
0.200000 0.400000 0.000000
0.200000 0.450000 0.000000
0.200000 0.500000 0.000000
0.200000 0.550000 0.000000
0.200000 0.600000 0.000000
0.200000 0.650000 0.000000
0.200000 0.700000 0.000000
0.200000 0.750000 0.000000
0.200000 0.800000 0.000000
0.200000 0.850000 0.000000
0.200000 0.900000 0.000000
0.200000 0.950000 0.000000
0.250000 0.050000 0.000000
0.250000 0.100000 0.000000
0.250000 0.150000 0.000000
0.250000 0.200000 0.000000
0.250000 0.250000 0.000000
0.250000 0.300000 0.000000
0.250000 0.350000 0.000000
0.250000 0.400000 0.000000
0.250000 0.450000 0.000000
0.250000 0.500000 0.000000
0.250000 0.550000 0.000000
0.250000 0.600000 0.000000
0.250000 0.650000 0.000000
0.250000 0.700000 0.000000
0.250000 0.750000 0.000000
0.250000 0.800000 0.000000
0.250000 0.850000 0.000000
0.250000 0.900000 0.000000
0.250000 0.950000 0.000000
0.300000 0.050000 0.000000
0.300000 0.100000 0.000000
0.300000 0.150000 0.000000
0.300000 0.200000 0.000000
0.300000 0.250000 0.000000
0.300000 0.300000 0.000000
0.300000 0.350000 0.000000
0.300000 0.400000 0.000000
0.300000 0.450000 0.000000
0.300000 0.500000 0.000000
0.300000 0.550000 0.000000
0.300000 0.600000 0.000000
0.300000 0.650000 0.000000
0.300000 0.700000 0.000000
0.300000 0.750000 0.000000
0.300000 0.800000 0.000000
0.300000 0.850000 0.000000
0.300000 0.900000 0.000000
0.300000 0.950000 0.000000
0.350000 0.050000 0.000000
0.350000 0.100000 0.000000
0.350000 0.150000 0.000000
0.350000 0.200000 0.000000
0.350000 0.250000 0.000000
0.350000 0.300000 0.000000
0.350000 0.350000 0.000000
0.350000 0.400000 0.000000
0.350000 0.450000 0.000000
0.350000 0.500000 0.000000
0.350000 0.550000 0.000000
0.350000 0.600000 0.000000
0.350000 0.650000 0.000000
0.350000 0.700000 0.000000
0.350000 0.750000 0.000000
0.350000 0.800000 0.000000
0.350000 0.850000 0.000000
0.350000 0.900000 0.000000
0.350000 0.950000 0.000000
0.400000 0.050000 0.000000
0.400000 0.100000 0.000000
0.400000 0.150000 0.000000
0.400000 0.200000 0.000000
0.400000 0.250000 0.000000
0.400000 0.300000 0.000000
0.400000 0.350000 0.000000
0.400000 0.400000 0.000000
0.400000 0.450000 0.000000
0.400000 0.500000 0.000000
0.400000 0.550000 0.000000
0.400000 0.600000 0.000000
0.400000 0.650000 0.000000
0.400000 0.700000 0.000000
0.400000 0.750000 0.000000
0.400000 0.800000 0.000000
0.400000 0.850000 0.000000
0.400000 0.900000 0.000000
0.400000 0.950000 0.000000
0.450000 0.050000 0.000000
0.450000 0.100000 0.000000
0.450000 0.150000 0.000000
0.450000 0.200000 0.000000
0.450000 0.250000 0.000000
0.450000 0.300000 0.000000
0.450000 0.350000 0.000000
0.450000 0.400000 0.000000
0.450000 0.450000 0.000000
0.450000 0.500000 0.000000
0.450000 0.550000 0.000000
0.450000 0.600000 0.000000
0.450000 0.650000 0.000000
0.450000 0.700000 0.000000
0.450000 0.750000 0.000000
0.450000 0.800000 0.000000
0.450000 0.850000 0.000000
0.450000 0.900000 0.000000
0.450000 0.950000 0.000000
0.500000 0.050000 0.000000
0.500000 0.100000 0.000000
0.500000 0.150000 0.000000
0.500000 0.200000 0.000000
0.500000 0.250000 0.000000
0.500000 0.300000 0.000000
0.500000 0.350000 0.000000
0.500000 0.400000 0.000000
0.500000 0.450000 0.000000
0.500000 0.500000 0.000000
0.500000 0.550000 0.000000
0.500000 0.600000 0.000000
0.500000 0.650000 0.000000
0.500000 0.700000 0.000000
0.500000 0.750000 0.000000
0.500000 0.800000 0.000000
0.500000 0.850000 0.000000
0.500000 0.900000 0.000000
0.500000 0.950000 0.000000
0.550000 0.050000 0.000000
0.550000 0.100000 0.000000
0.550000 0.150000 0.000000
0.550000 0.200000 0.000000
0.550000 0.250000 0.000000
0.550000 0.300000 0.000000
0.550000 0.350000 0.000000
0.550000 0.400000 0.000000
0.550000 0.450000 0.000000
0.550000 0.500000 0.000000
0.550000 0.550000 0.000000
0.550000 0.600000 0.000000
0.550000 0.650000 0.000000
0.550000 0.700000 0.000000
0.550000 0.750000 0.000000
0.550000 0.800000 0.000000
0.550000 0.850000 0.000000
0.550000 0.900000 0.000000
0.550000 0.950000 0.000000
0.600000 0.050000 0.000000
0.600000 0.100000 0.000000
0.600000 0.150000 0.000000
0.600000 0.200000 0.000000
0.600000 0.250000 0.000000
0.600000 0.300000 0.000000
0.600000 0.350000 0.000000
0.600000 0.400000 0.000000
0.600000 0.450000 0.000000
0.600000 0.500000 0.000000
0.600000 0.550000 0.000000
0.600000 0.600000 0.000000
0.600000 0.650000 0.000000
0.600000 0.700000 0.000000
0.600000 0.750000 0.000000
0.600000 0.800000 0.000000
0.600000 0.850000 0.000000
0.600000 0.900000 0.000000
0.600000 0.950000 0.000000
0.650000 0.050000 0.000000
0.650000 0.100000 0.000000
0.650000 0.150000 0.000000
0.650000 0.200000 0.000000
0.650000 0.250000 0.000000
0.650000 0.300000 0.000000
0.650000 0.350000 0.000000
0.650000 0.400000 0.000000
0.650000 0.450000 0.000000
0.650000 0.500000 0.000000
0.650000 0.550000 0.000000
0.650000 0.600000 0.000000
0.650000 0.650000 0.000000
0.650000 0.700000 0.000000
0.650000 0.750000 0.000000
0.650000 0.800000 0.000000
0.650000 0.850000 0.000000
0.650000 0.900000 0.000000
0.650000 0.950000 0.000000
0.700000 0.050000 0.000000
0.700000 0.100000 0.000000
0.700000 0.150000 0.000000
0.700000 0.200000 0.000000
0.700000 0.250000 0.000000
0.700000 0.300000 0.000000
0.700000 0.350000 0.000000
0.700000 0.400000 0.000000
0.700000 0.450000 0.000000
0.700000 0.500000 0.000000
0.700000 0.550000 0.000000
0.700000 0.600000 0.000000
0.700000 0.650000 0.000000
0.700000 0.700000 0.000000
0.700000 0.750000 0.000000
0.700000 0.800000 0.000000
0.700000 0.850000 0.000000
0.700000 0.900000 0.000000
0.700000 0.950000 0.000000
0.750000 0.050000 0.000000
0.750000 0.100000 0.000000
0.750000 0.150000 0.000000
0.750000 0.200000 0.000000
0.750000 0.250000 0.000000
0.750000 0.300000 0.000000
0.750000 0.350000 0.000000
0.750000 0.400000 0.000000
0.750000 0.450000 0.000000
0.750000 0.500000 0.000000
0.750000 0.550000 0.000000
0.750000 0.600000 0.000000
0.750000 0.650000 0.000000
0.750000 0.700000 0.000000
0.750000 0.750000 0.000000
0.750000 0.800000 0.000000
0.750000 0.850000 0.000000
0.750000 0.900000 0.000000
0.750000 0.950000 0.000000
0.800000 0.050000 0.000000
0.800000 0.100000 0.000000
[...]
CELL_DATA 800
SCALARS PRESSURE float 1
LOOKUP_TABLE default
0.000000
-0.000201
0.000056
0.000997
-0.000066
-0.003027
0.000022
0.005802
0.000013
-0.006369
-0.000055
0.005869
0.000055
-0.007374
0.000039
0.008612
-0.000153
-0.008693
0.000061
0.005007
-0.000009
0.000806
0.000000
-0.005843
0.000009
0.009079
-0.000106
-0.008127
-0.000035
0.004419
-0.000024
-0.000131
0.000056
-0.002080
0.000039
0.002491
0.000059
-0.001561
0.000043
0.000337
-0.000201
0.000600
0.001011
-0.003334
-0.003328
0.011496
0.005372
-0.021133
-0.006714
0.024478
0.005433
-0.022352
-0.007857
0.030931
0.008191
-0.032353
-0.008985
0.029062
0.004927
-0.011979
0.000820
-0.009079
-0.005664
0.026255
0.009515
-0.036979
-0.007566
0.030701
0.004995
-0.020264
0.000410
0.004586
-0.001729
0.003543
0.002639
-0.008139
-0.001528
0.005483
0.000413
-0.001231
0.000545
-0.001891
-0.003331
0.009043
0.011069
-0.023547
-0.021929
0.037894
0.023510
-0.036929
-0.023719
0.034574
0.029544
-0.038827
-0.033381
0.035591
0.028075
-0.025903
-0.012551
0.005692
-0.009222
0.019330
0.026573
-0.038373
-0.036109
0.043645
0.031814
-0.033030
-0.018976
0.020174
0.005781
-0.009871
0.004606
0.001243
-0.007250
0.005936
0.005999
-0.006582
-0.001079
0.001339
-0.001905
0.001312
0.009138
-0.007128
-0.023980
0.019633
0.036680
-0.027935
-0.038698
0.030834
0.032447
-0.028344
-0.040972
0.035563
0.033667
-0.023411
-0.027423
0.006003
0.004875
0.019899
0.019206
-0.042507
-0.037932
0.051117
0.044660
-0.043582
-0.031493
0.019083
0.022123
-0.007028
-0.007766
0.001741
0.003150
-0.006033
0.007526
-0.003452
-0.005701
0.004576
0.001541
-0.001105
0.001375
-0.001738
-0.007166
0.007486
0.018902
-0.016269
-0.029512
0.025943
0.028609
-0.026333
-0.031020
0.023765
0.032713
-0.014495
-0.025986
0.002688
0.004112
0.028817
0.018783
-0.046856
-0.042729
0.060477
0.051898
-0.051379
-0.041896
0.007343
0.021488
0.032985
-0.004111
-0.050946
0.004659
0.026772
-0.003596
-0.007041
-0.001494
0.004643
0.005815
-0.006241
-0.000676
0.001386
-0.001532
0.000525
0.007689
-0.005218
-0.016725
0.009642
0.024576
-0.013552
-0.028510
0.016407
0.020921
-0.005729
-0.017802
0.006664
-0.000657
-0.006344
0.025918
-0.002740
-0.048982
0.012756
0.059520
-0.023511
-0.051028
0.025370
0.008877
0.017478
0.035485
-0.058673
-0.047759
0.068639
0.030277
-0.043499
-0.003752
0.010852
0.007351
-0.013062
-0.004367
0.007028
0.002104
-0.001668
0.000968
-0.001308
-0.004514
0.001242
0.009658
0.001595
-0.014641
-0.002258
0.014188
0.008063
-0.008812
-0.013036
0.002975
0.016556
-0.010276
0.017095
-0.006340
-0.033226
0.010045
0.058281
-0.025025
-0.061008
0.025039
0.044608
0.018382
-0.055785
-0.056535
0.057056
0.071745
-0.055329
-0.039802
0.021377
0.014591
-0.007697
-0.009914
0.009282
0.009049
-0.008578
-0.001025
0.001453
-0.000648
-0.001189
0.002407
0.003460
0.002061
-0.013383
-0.003010
0.018212
0.005919
-0.023060
-0.016223
0.035294
0.012851
-0.030114
0.013270
-0.008928
-0.036719
0.053565
0.055556
-0.092002
-0.062711
0.113532
0.044019
-0.089535
-0.055090
0.066611
0.059086
-0.037207
-0.052303
0.014675
0.024969
0.000583
-0.003962
-0.003374
0.012610
-0.013037
-0.006213
0.007212
0.002584
-0.001427
-0.000379
-0.001179
0.004809
-0.003526
-0.012161
0.008980
0.018529
-0.015961
-0.024027
0.024060
0.033229
-0.030575
-0.032977
0.026551
-0.012242
0.003477
0.050147
-0.022532
-0.095184
0.046927
0.111054
-0.048687
-0.090930
0.031898
0.066482
-0.009470
-0.036073
-0.013492
0.016913
0.021266
0.003694
-0.024122
0.000281
0.009149
-0.009458
0.002484
0.009878
-0.005934
-0.000746
0.001039
-0.000328
-0.001387
-0.001314
0.003087
0.011183
-0.010002
-0.014434
0.009205
0.024589
-0.012716
-0.031256
0.013156
0.024618
-0.002813
0.000590
0.008637
-0.025999
-0.004277
0.043318
0.007663
-0.051907
-0.016692
0.029421
0.030212
-0.010976
-0.033579
-0.013821
0.027128
0.022258
-0.023129
-0.021921
0.020107
0.012072
-0.019004
0.005536
0.009767
-0.003521
-0.005667
0.002139
0.000933
-0.000153
0.000607
0.005177
-0.010501
-0.007698
0.013291
0.011176
-0.013200
-0.011613
0.012862
0.013172
-0.011969
-0.003927
0.004026
0.006566
-0.015469
-0.006990
0.012267
0.004557
-0.003255
-0.019878
0.021495
0.027405
-0.029165
-0.035686
0.032621
0.025951
-0.012012
-0.023182
0.011359
0.021155
-0.019126
-0.017107
0.020497
0.012240
-0.023509
-0.003125
0.009918
0.001851
-0.001961
0.001499
-0.002993
-0.008084
0.005349
0.016312
-0.007587
-0.010463
-0.008722
0.014766
0.007700
-0.010970
-0.001833
0.004018
-0.006538
-0.016590
0.034704
0.010164
-0.027972
-0.006155
0.016947
0.018234
-0.021746
-0.032207
0.027393
0.030027
-0.015890
-0.013995
-0.005257
0.010262
0.003617
-0.019073
0.009041
0.021785
-0.017306
-0.021453
0.022654
0.011940
-0.013744
-0.001058
0.002439
-0.001679
-0.000084
0.008277
-0.003446
-0.003982
-0.007360
-0.005111
0.028039
0.010730
-0.041018
0.000212
0.024473
-0.005695
-0.000268
0.034105
-0.038727
-0.029718
0.042417
0.014384
-0.027988
-0.025065
0.033833
0.023714
-0.029539
-0.019417
0.022451
-0.008168
0.006729
0.001606
-0.010448
0.008113
0.008200
-0.016890
-0.003033
0.024063
-0.008085
-0.012092
0.004688
0.003361
-0.000892
0.000836
-0.001906
-0.001204
0.001819
-0.004137
0.002328
0.031870
-0.032371
-0.037439
0.048178
0.027198
-0.045825
0.001562
0.024924
-0.038110
-0.001348
0.041927
-0.008062
-0.029555
0.010461
0.031011
-0.012125
-0.033232
0.020150
0.018581
-0.017685
0.003339
0.009997
-0.012978
0.000413
0.006387
-0.001912
-0.003829
0.005306
-0.007690
-0.001743
0.005654
0.000122
-0.000365
-0.000200
-0.001211
-0.000052
0.004036
-0.002989
0.005539
-0.005056
-0.028630
0.020191
0.051925
-0.035919
-0.042627
0.018667
0.027458
0.001477
0.000037
-0.014582
-0.008246
0.020486
0.008771
-0.017068
-0.014797
0.013002
0.016941
-0.012526
-0.021439
0.021047
0.006191
-0.020745
-0.002612
0.020210
-0.004123
-0.005184
0.004204
-0.006185
-0.001593
0.011860
0.000697
-0.008091
0.000272
0.001822
0.000714
-0.001179
-0.001126
0.001893
-0.002422
-0.003457
0.023366
-0.003565
-0.032294
0.001935
0.021797
0.011830
0.003798
-0.029863
-0.013345
0.024037
0.020484
-0.030119
-0.018217
0.031444
0.011024
-0.021788
-0.015172
0.022494
0.017677
-0.018564
-0.024428
0.027030
0.017120
-0.019650
-0.007521
0.002327
-0.007510
0.017222
0.011610
-0.023248
-0.007795
0.014052
0.002031
-0.003189
-0.000892
-0.000488
0.003073
0.000688
-0.001643
-0.003888
-0.000994
-0.003452
0.005047
0.006597
0.014557
-0.020953
-0.027615
0.018573
0.025666
-0.003218
-0.029173
0.004686
0.031326
-0.011116
-0.023183
0.006989
0.020311
-0.003004
-0.021168
0.004745
0.024167
-0.011610
-0.022320
0.014647
-0.000089
0.003330
0.015403
-0.014974
-0.024092
0.021917
0.013935
-0.012938
-0.002881
0.002846
-0.000132
0.000471
0.001591
-0.003569
-0.002273
0.004951
-0.001494
-0.002837
0.008643
-0.001416
-0.018926
0.002832
0.020610
0.002031
-0.001936
-0.014123
0.005169
0.006863
-0.011368
0.005507
0.005970
-0.008647
-0.004636
0.009877
0.002809
-0.004901
-0.013743
0.006732
0.012709
-0.001542
0.001591
-0.009350
-0.016112
0.017614
0.021509
-0.017923
-0.013035
0.009785
0.002869
-0.002048
0.000619
-0.000246
-0.002950
0.000876
0.005853
-0.001928
-0.001967
0.000797
-0.000218
-0.000984
0.004217
-0.000808
0.003125
-0.001670
-0.013674
0.004009
0.007192
-0.002242
0.005407
-0.002009
-0.008965
0.003422
0.009097
-0.002983
-0.006005
0.002193
0.005485
-0.000989
-0.002601
0.000550
-0.010300
0.003542
0.017013
-0.004018
-0.018360
0.004474
0.009477
-0.002233
-0.001955
0.000426
-0.000186
-0.000047
0.000969
-0.000020
-0.001779
-0.000073
0.001185
-0.000006
-0.000461
0.000121
-0.000528
-0.000030
-0.001329
-0.000245
0.004372
0.000015
-0.001984
-0.000085
-0.001987
0.000145
0.003308
0.000040
-0.003213
0.000008
0.001806
0.000069
-0.001519
0.000053
0.000098
-0.000049
0.003061
0.000052
-0.004432
-0.000083
0.004362
0.000001
-0.002256
0.000092
0.000426
0.000000
