# vtk DataFile Version 2.0
SquarePlate_mix
ASCII
DATASET POLYDATA
POINTS 441 float
0.000000 0.000000 0.000000
1.000000 0.000000 0.000000
1.000000 1.000000 0.000000
0.000000 1.000000 0.000000
0.050000 0.000000 0.000000
0.100000 0.000000 0.000000
0.150000 0.000000 0.000000
0.200000 0.000000 0.000000
0.250000 0.000000 0.000000
0.300000 0.000000 0.000000
0.350000 0.000000 0.000000
0.400000 0.000000 0.000000
0.450000 0.000000 0.000000
0.500000 0.000000 0.000000
0.550000 0.000000 0.000000
0.600000 0.000000 0.000000
0.650000 0.000000 0.000000
0.700000 0.000000 0.000000
0.750000 0.000000 0.000000
0.800000 0.000000 0.000000
0.850000 0.000000 0.000000
0.900000 0.000000 0.000000
0.950000 0.000000 0.000000
1.000000 0.050000 0.000000
1.000000 0.100000 0.000000
1.000000 0.150000 0.000000
1.000000 0.200000 0.000000
1.000000 0.250000 0.000000
1.000000 0.300000 0.000000
1.000000 0.350000 0.000000
1.000000 0.400000 0.000000
1.000000 0.450000 0.000000
1.000000 0.500000 0.000000
1.000000 0.550000 0.000000
1.000000 0.600000 0.000000
1.000000 0.650000 0.000000
1.000000 0.700000 0.000000
1.000000 0.750000 0.000000
1.000000 0.800000 0.000000
1.000000 0.850000 0.000000
1.000000 0.900000 0.000000
1.000000 0.950000 0.000000
0.950000 1.000000 0.000000
0.900000 1.000000 0.000000
0.850000 1.000000 0.000000
0.800000 1.000000 0.000000
0.750000 1.000000 0.000000
0.700000 1.000000 0.000000
0.650000 1.000000 0.000000
0.600000 1.000000 0.000000
0.550000 1.000000 0.000000
0.500000 1.000000 0.000000
0.450000 1.000000 0.000000
0.400000 1.000000 0.000000
0.350000 1.000000 0.000000
0.300000 1.000000 0.000000
0.250000 1.000000 0.000000
0.200000 1.000000 0.000000
0.150000 1.000000 0.000000
0.100000 1.000000 0.000000
0.050000 1.000000 0.000000
0.000000 0.950000 0.000000
0.000000 0.900000 0.000000
0.000000 0.850000 0.000000
0.000000 0.800000 0.000000
0.000000 0.750000 0.000000
0.000000 0.700000 0.000000
0.000000 0.650000 0.000000
0.000000 0.600000 0.000000
0.000000 0.550000 0.000000
0.000000 0.500000 0.000000
0.000000 0.450000 0.000000
0.000000 0.400000 0.000000
0.000000 0.350000 0.000000
0.000000 0.300000 0.000000
0.000000 0.250000 0.000000
0.000000 0.200000 0.000000
0.000000 0.150000 0.000000
0.000000 0.100000 0.000000
0.000000 0.050000 0.000000
0.050000 0.050000 0.000000
0.050000 0.100000 0.000000
0.050000 0.150000 0.000000
0.050000 0.200000 0.000000
0.050000 0.250000 0.000000
0.050000 0.300000 0.000000
0.050000 0.350000 0.000000
0.050000 0.400000 0.000000
0.050000 0.450000 0.000000
0.050000 0.500000 0.000000
0.050000 0.550000 0.000000
0.050000 0.600000 0.000000
0.050000 0.650000 0.000000
0.050000 0.700000 0.000000
0.050000 0.750000 0.000000
0.050000 0.800000 0.000000
0.050000 0.850000 0.000000
0.050000 0.900000 0.000000
0.050000 0.950000 0.000000
0.100000 0.050000 0.000000
0.100000 0.100000 0.000000
0.100000 0.150000 0.000000
0.100000 0.200000 0.000000
0.100000 0.250000 0.000000
0.100000 0.300000 0.000000
0.100000 0.350000 0.000000
0.100000 0.400000 0.000000
0.100000 0.450000 0.000000
0.100000 0.500000 0.000000
0.100000 0.550000 0.000000
0.100000 0.600000 0.000000
0.100000 0.650000 0.000000
0.100000 0.700000 0.000000
0.100000 0.750000 0.000000
0.100000 0.800000 0.000000
0.100000 0.850000 0.000000
0.100000 0.900000 0.000000
0.100000 0.950000 0.000000
0.150000 0.050000 0.000000
0.150000 0.100000 0.000000
0.150000 0.150000 0.000000
0.150000 0.200000 0.000000
0.150000 0.250000 0.000000
0.150000 0.300000 0.000000
0.150000 0.350000 0.000000
0.150000 0.400000 0.000000
0.150000 0.450000 0.000000
0.150000 0.500000 0.000000
0.150000 0.550000 0.000000
0.150000 0.600000 0.000000
0.150000 0.650000 0.000000
0.150000 0.700000 0.000000
0.150000 0.750000 0.000000
0.150000 0.800000 0.000000
0.150000 0.850000 0.000000
0.150000 0.900000 0.000000
0.150000 0.950000 0.000000
0.200000 0.050000 0.000000
0.200000 0.100000 0.000000
0.200000 0.150000 0.000000
0.200000 0.200000 0.000000
0.200000 0.250000 0.000000
0.200000 0.300000 0.000000
0.200000 0.350000 0.000000
0.200000 0.400000 0.000000
0.200000 0.450000 0.000000
0.200000 0.500000 0.000000
0.200000 0.550000 0.000000
0.200000 0.600000 0.000000
0.200000 0.650000 0.000000
0.200000 0.700000 0.000000
0.200000 0.750000 0.000000
0.200000 0.800000 0.000000
0.200000 0.850000 0.000000
0.200000 0.900000 0.000000
0.200000 0.950000 0.000000
0.250000 0.050000 0.000000
0.250000 0.100000 0.000000
0.250000 0.150000 0.000000
0.250000 0.200000 0.000000
0.250000 0.250000 0.000000
0.250000 0.300000 0.000000
0.250000 0.350000 0.000000
0.250000 0.400000 0.000000
0.250000 0.450000 0.000000
0.250000 0.500000 0.000000
0.250000 0.550000 0.000000
0.250000 0.600000 0.000000
0.250000 0.650000 0.000000
0.250000 0.700000 0.000000
0.250000 0.750000 0.000000
0.250000 0.800000 0.000000
0.250000 0.850000 0.000000
0.250000 0.900000 0.000000
0.250000 0.950000 0.000000
0.300000 0.050000 0.000000
0.300000 0.100000 0.000000
0.300000 0.150000 0.000000
0.300000 0.200000 0.000000
0.300000 0.250000 0.000000
0.300000 0.300000 0.000000
0.300000 0.350000 0.000000
0.300000 0.400000 0.000000
0.300000 0.450000 0.000000
0.300000 0.500000 0.000000
0.300000 0.550000 0.000000
0.300000 0.600000 0.000000
0.300000 0.650000 0.000000
0.300000 0.700000 0.000000
0.300000 0.750000 0.000000
0.300000 0.800000 0.000000
0.300000 0.850000 0.000000
0.300000 0.900000 0.000000
0.300000 0.950000 0.000000
0.350000 0.050000 0.000000
0.350000 0.100000 0.000000
0.350000 0.150000 0.000000
0.350000 0.200000 0.000000
0.350000 0.250000 0.000000
0.350000 0.300000 0.000000
0.350000 0.350000 0.000000
0.350000 0.400000 0.000000
0.350000 0.450000 0.000000
0.350000 0.500000 0.000000
0.350000 0.550000 0.000000
0.350000 0.600000 0.000000
0.350000 0.650000 0.000000
0.350000 0.700000 0.000000
0.350000 0.750000 0.000000
0.350000 0.800000 0.000000
0.350000 0.850000 0.000000
0.350000 0.900000 0.000000
0.350000 0.950000 0.000000
0.400000 0.050000 0.000000
0.400000 0.100000 0.000000
0.400000 0.150000 0.000000
0.400000 0.200000 0.000000
0.400000 0.250000 0.000000
0.400000 0.300000 0.000000
0.400000 0.350000 0.000000
0.400000 0.400000 0.000000
0.400000 0.450000 0.000000
0.400000 0.500000 0.000000
0.400000 0.550000 0.000000
0.400000 0.600000 0.000000
0.400000 0.650000 0.000000
0.400000 0.700000 0.000000
0.400000 0.750000 0.000000
0.400000 0.800000 0.000000
0.400000 0.850000 0.000000
0.400000 0.900000 0.000000
0.400000 0.950000 0.000000
0.450000 0.050000 0.000000
0.450000 0.100000 0.000000
0.450000 0.150000 0.000000
0.450000 0.200000 0.000000
0.450000 0.250000 0.000000
0.450000 0.300000 0.000000
0.450000 0.350000 0.000000
0.450000 0.400000 0.000000
0.450000 0.450000 0.000000
0.450000 0.500000 0.000000
0.450000 0.550000 0.000000
0.450000 0.600000 0.000000
0.450000 0.650000 0.000000
0.450000 0.700000 0.000000
0.450000 0.750000 0.000000
0.450000 0.800000 0.000000
0.450000 0.850000 0.000000
0.450000 0.900000 0.000000
0.450000 0.950000 0.000000
0.500000 0.050000 0.000000
0.500000 0.100000 0.000000
0.500000 0.150000 0.000000
0.500000 0.200000 0.000000
0.500000 0.250000 0.000000
0.500000 0.300000 0.000000
0.500000 0.350000 0.000000
0.500000 0.400000 0.000000
0.500000 0.450000 0.000000
0.500000 0.500000 0.000000
0.500000 0.550000 0.000000
0.500000 0.600000 0.000000
0.500000 0.650000 0.000000
0.500000 0.700000 0.000000
0.500000 0.750000 0.000000
0.500000 0.800000 0.000000
0.500000 0.850000 0.000000
0.500000 0.900000 0.000000
0.500000 0.950000 0.000000
0.550000 0.050000 0.000000
0.550000 0.100000 0.000000
0.550000 0.150000 0.000000
0.550000 0.200000 0.000000
0.550000 0.250000 0.000000
0.550000 0.300000 0.000000
0.550000 0.350000 0.000000
0.550000 0.400000 0.000000
0.550000 0.450000 0.000000
0.550000 0.500000 0.000000
0.550000 0.550000 0.000000
0.550000 0.600000 0.000000
0.550000 0.650000 0.000000
0.550000 0.700000 0.000000
0.550000 0.750000 0.000000
0.550000 0.800000 0.000000
0.550000 0.850000 0.000000
0.550000 0.900000 0.000000
0.550000 0.950000 0.000000
0.600000 0.050000 0.000000
0.600000 0.100000 0.000000
0.600000 0.150000 0.000000
0.600000 0.200000 0.000000
0.600000 0.250000 0.000000
0.600000 0.300000 0.000000
0.600000 0.350000 0.000000
0.600000 0.400000 0.000000
0.600000 0.450000 0.000000
0.600000 0.500000 0.000000
0.600000 0.550000 0.000000
0.600000 0.600000 0.000000
0.600000 0.650000 0.000000
0.600000 0.700000 0.000000
0.600000 0.750000 0.000000
0.600000 0.800000 0.000000
0.600000 0.850000 0.000000
0.600000 0.900000 0.000000
0.600000 0.950000 0.000000
0.650000 0.050000 0.000000
0.650000 0.100000 0.000000
0.650000 0.150000 0.000000
0.650000 0.200000 0.000000
0.650000 0.250000 0.000000
0.650000 0.300000 0.000000
0.650000 0.350000 0.000000
0.650000 0.400000 0.000000
0.650000 0.450000 0.000000
0.650000 0.500000 0.000000
0.650000 0.550000 0.000000
0.650000 0.600000 0.000000
0.650000 0.650000 0.000000
0.650000 0.700000 0.000000
0.650000 0.750000 0.000000
0.650000 0.800000 0.000000
0.650000 0.850000 0.000000
0.650000 0.900000 0.000000
0.650000 0.950000 0.000000
0.700000 0.050000 0.000000
0.700000 0.100000 0.000000
0.700000 0.150000 0.000000
0.700000 0.200000 0.000000
0.700000 0.250000 0.000000
0.700000 0.300000 0.000000
0.700000 0.350000 0.000000
0.700000 0.400000 0.000000
0.700000 0.450000 0.000000
0.700000 0.500000 0.000000
0.700000 0.550000 0.000000
0.700000 0.600000 0.000000
0.700000 0.650000 0.000000
0.700000 0.700000 0.000000
0.700000 0.750000 0.000000
0.700000 0.800000 0.000000
0.700000 0.850000 0.000000
0.700000 0.900000 0.000000
0.700000 0.950000 0.000000
0.750000 0.050000 0.000000
0.750000 0.100000 0.000000
0.750000 0.150000 0.000000
0.750000 0.200000 0.000000
0.750000 0.250000 0.000000
0.750000 0.300000 0.000000
0.750000 0.350000 0.000000
0.750000 0.400000 0.000000
0.750000 0.450000 0.000000
0.750000 0.500000 0.000000
0.750000 0.550000 0.000000
0.750000 0.600000 0.000000
0.750000 0.650000 0.000000
0.750000 0.700000 0.000000
0.750000 0.750000 0.000000
0.750000 0.800000 0.000000
0.750000 0.850000 0.000000
0.750000 0.900000 0.000000
0.750000 0.950000 0.000000
0.800000 0.050000 0.000000
0.800000 0.100000 0.000000
[...]
CELL_DATA 800
SCALARS PRESSURE float 1
LOOKUP_TABLE default
0.000000
-0.002945
-0.002945
0.011004
0.006793
0.011865
-0.007007
0.045829
0.010279
0.028148
-0.005085
0.029164
0.003757
0.056962
-0.003904
0.113903
0.006423
0.092241
-0.012016
0.079638
0.007682
0.043227
-0.008156
0.009688
-0.007969
0.001983
-0.006840
-0.037534
-0.017381
0.029658
0.002290
-0.038298
-0.006801
-0.031719
0.001758
-0.010417
-0.001465
-0.028435
0.002099
-0.006581
0.004210
0.004220
0.023092
-0.071039
-0.034599
-0.017404
-0.000176
-0.080422
-0.096199
0.013164
0.045947
-0.094334
-0.047194
-0.191731
-0.097601
-0.197721
-0.162976
-0.048933
-0.042289
-0.193861
-0.129058
-0.049346
0.012451
-0.088022
-0.016214
-0.117040
0.098761
-0.198828
-0.021522
-0.161052
0.033200
-0.029670
0.069901
-0.076115
-0.004815
0.006990
0.050189
-0.004168
0.011463
-0.000121
-0.000890
-0.003403
0.012601
0.069527
0.096351
-0.051677
-0.046226
0.098646
0.161166
-0.134207
-0.113973
0.114718
0.193630
0.089937
0.167010
0.029404
0.106891
0.053976
0.099988
0.158517
0.188063
-0.053125
-0.020340
0.099512
0.120487
0.082643
0.126696
0.066226
0.196259
-0.006052
0.095271
-0.120136
0.031514
-0.060990
0.066379
-0.105451
-0.034425
-0.026670
-0.001358
-0.009995
0.014358
-0.018487
0.004144
-0.130689
-0.133435
0.174452
0.139155
-0.244038
-0.217997
0.230346
0.284516
-0.314748
-0.326654
0.032821
0.133512
-0.256762
-0.174815
-0.126542
-0.040334
-0.194368
-0.117134
0.002576
0.029947
-0.095639
0.007493
-0.232749
-0.076896
-0.074994
0.045468
-0.169149
0.025441
0.037496
0.186184
-0.105932
0.019064
-0.016849
0.092340
0.017113
0.011757
0.023851
0.000566
0.011748
0.036938
0.073879
0.030599
-0.128584
-0.144183
0.404524
0.310700
-0.268583
-0.374655
0.494804
0.468622
-0.127446
-0.204429
0.420505
0.468748
-0.094486
0.029370
0.156505
0.209089
-0.083264
0.022669
0.003151
0.088694
0.191680
0.225639
-0.116518
-0.010663
0.126615
0.243831
-0.278288
-0.227688
0.190098
0.268683
-0.169110
-0.153595
-0.045020
-0.032001
-0.004117
-0.024463
-0.004942
-0.075848
0.178923
0.143853
-0.026518
-0.176978
-0.185047
-0.279671
0.482422
0.268269
-0.500136
-0.602317
0.487405
0.267397
-0.477054
-0.516043
0.272789
0.262287
-0.438867
-0.289831
0.170384
0.254318
-0.272764
-0.071318
-0.173289
-0.021624
-0.031869
0.171396
-0.277931
-0.064701
0.051032
0.287337
-0.386064
-0.250546
0.131583
0.225155
-0.020264
0.024473
-0.027748
0.016166
-0.037957
0.018899
-0.281025
-0.384389
0.382220
0.318031
0.041364
-0.168465
-0.154845
-0.295049
0.656059
0.458192
-0.416317
-0.633271
0.917074
0.736949
-0.268683
-0.409951
0.622455
0.555691
-0.214758
-0.207631
0.278741
0.326360
-0.103516
-0.095879
0.091874
0.173124
0.032195
0.098655
-0.027167
0.013332
0.237031
0.255401
-0.132482
-0.147085
0.003969
0.016267
0.021394
0.020715
-0.013729
0.034169
0.235769
0.207206
-0.410848
-0.461485
0.277211
0.154627
0.047785
-0.087665
-0.228286
-0.420735
0.436942
0.347651
-0.807578
-0.940807
0.504835
0.449889
-0.607117
-0.646466
0.261009
0.316799
-0.295411
-0.291069
0.184347
0.280489
-0.227990
-0.153573
0.033471
0.106388
-0.197220
-0.096623
-0.181813
-0.162699
0.120732
0.150775
-0.021055
-0.043279
-0.012023
-0.014682
0.008646
-0.003514
-0.138166
-0.181526
0.412564
0.270287
-0.088312
-0.249128
0.149307
-0.057032
0.327711
0.115331
-0.035608
-0.278933
0.913558
0.729650
-0.361307
-0.523810
0.828458
0.722978
-0.349039
-0.442388
0.498087
0.377197
-0.171405
-0.339388
0.378297
0.267856
-0.054486
-0.151524
0.348314
0.268745
0.085835
0.035201
-0.051838
-0.136280
0.072028
0.042307
0.014942
0.008528
-0.014757
0.025483
0.030335
0.013117
-0.301356
-0.305295
0.114591
-0.025298
0.074611
-0.063616
-0.165402
-0.309248
0.076618
-0.017039
-0.595772
-0.717168
0.431612
0.225301
-0.602975
-0.660966
0.379049
0.396348
-0.613894
-0.569218
0.337081
0.379142
-0.481296
-0.501736
0.265637
0.223201
-0.384938
-0.482479
0.139563
0.050158
0.051011
0.001281
0.026304
-0.048278
0.004332
-0.005862
0.004780
-0.009865
0.062204
0.100784
0.088068
0.156685
-0.101728
-0.069982
-0.099618
-0.135670
0.334886
0.272297
-0.042882
-0.046391
0.502032
0.506900
-0.320358
-0.352422
0.683399
0.527748
-0.068034
-0.249598
0.562998
0.463299
-0.285692
-0.432666
0.596887
0.498327
-0.292913
-0.448070
0.566957
0.428304
-0.020816
-0.188864
0.071068
-0.049052
0.067950
0.013710
0.014596
-0.013454
0.019347
-0.039087
-0.010415
-0.086209
0.017165
-0.039783
0.179998
0.141460
-0.039608
-0.029232
-0.182232
-0.274289
0.123611
0.060357
-0.373340
-0.430076
0.192632
0.198564
-0.704752
-0.743168
0.123055
0.073419
-0.367210
-0.419860
0.238420
0.216713
-0.472127
-0.521242
0.345361
0.304809
-0.559563
-0.612150
0.167767
0.049464
0.057065
-0.078145
0.069181
-0.036411
0.005138
-0.009520
-0.001614
-0.002343
0.045002
0.059709
-0.079025
-0.030401
-0.216428
-0.134588
0.051771
0.173787
-0.056795
0.062426
-0.164557
-0.013282
0.217842
0.275368
-0.100437
0.042209
0.565323
0.593849
-0.091551
-0.118585
0.360138
0.258199
-0.088114
-0.175757
0.434369
0.274718
-0.074129
-0.195820
0.522232
0.485936
-0.260492
-0.194219
-0.060678
-0.035464
-0.030354
0.008207
0.002093
-0.000266
-0.000003
-0.066972
0.031745
0.029588
0.040831
0.020413
0.286673
0.306845
-0.219930
-0.228592
0.260813
0.257438
0.035539
-0.101310
0.003072
-0.039519
-0.072489
-0.150125
-0.446359
-0.496861
0.120461
0.042382
-0.169024
-0.350689
0.191587
0.061397
-0.288519
-0.434807
0.214285
-0.044628
-0.188654
-0.353171
0.398823
0.246303
0.065173
0.074784
-0.032487
-0.012023
-0.027649
-0.026216
0.034829
0.043210
-0.012958
0.022578
-0.151183
-0.075329
-0.272678
-0.178506
0.045172
0.241958
-0.436231
-0.358349
-0.004338
0.074463
-0.002829
-0.028268
0.118550
0.155891
0.368546
0.448091
-0.332631
-0.321249
0.347776
0.267692
-0.145920
-0.289642
0.528562
0.345678
-0.163383
-0.275869
0.368266
0.221282
-0.313486
-0.338764
0.060108
0.032411
-0.025158
0.038114
0.004683
-0.010521
-0.019404
-0.038675
0.029553
0.088416
0.048199
0.106466
0.203802
0.376393
-0.285581
-0.053609
0.199793
0.427662
-0.300852
-0.154149
-0.061804
0.051297
-0.231388
-0.250489
-0.201963
-0.224243
0.220896
0.249474
-0.409993
-0.443875
0.254546
0.175353
-0.437871
-0.570420
0.366806
0.219694
-0.180572
-0.297509
0.312388
0.248832
0.018156
0.012712
-0.050945
-0.016360
-0.016621
0.022289
-0.004926
0.046128
-0.133411
-0.040898
-0.116859
-0.011518
-0.457498
-0.252147
0.237207
0.360092
-0.443919
-0.269998
0.177082
0.382085
-0.191339
-0.055666
0.134659
0.266808
-0.001113
0.064314
-0.128256
-0.080404
0.258972
0.290909
-0.251175
-0.272261
0.564977
0.502646
-0.422620
-0.460518
0.314730
0.266236
-0.235909
-0.284786
0.038999
0.043828
0.061582
0.034330
0.008242
-0.007751
0.012075
-0.003381
0.152231
0.146578
0.092835
0.277548
0.143041
0.321995
-0.387542
-0.159594
0.231827
0.423913
-0.478151
-0.254734
0.051809
0.208680
-0.327161
-0.219026
0.026638
0.090733
-0.088506
-0.025733
-0.163699
-0.037825
-0.063109
-0.018196
-0.354962
-0.289024
0.286573
0.301965
-0.291662
-0.245332
0.231703
0.264859
-0.141209
-0.103282
-0.033896
-0.031777
0.012480
0.002757
-0.007744
-0.050481
-0.090522
-0.127913
-0.026549
-0.069195
-0.113569
-0.079184
0.203979
0.211967
-0.201911
-0.056840
0.216017
0.357663
-0.178616
0.009770
0.116560
0.226144
-0.092720
-0.027174
0.131120
0.126554
0.085183
0.126321
0.106637
0.167881
0.097758
0.128711
-0.097697
-0.052961
0.112277
0.102963
-0.114375
-0.108752
0.085103
0.094856
-0.002439
0.006563
-0.011602
0.010224
0.006647
0.048484
-0.010441
0.062169
-0.003618
0.046202
0.008083
0.001922
-0.026430
-0.018427
0.041975
0.029571
-0.047795
-0.047140
0.050237
0.038133
-0.034415
-0.036579
0.043597
-0.004856
-0.034854
-0.097199
0.029226
-0.069506
-0.021257
-0.071896
0.003400
-0.016972
0.003832
-0.003911
-0.014850
-0.012124
0.016391
0.007390
-0.013782
-0.025384
0.002783
0.002783
-0.000000
