# vtk DataFile Version 2.0
SquarePlate_mix
ASCII
DATASET POLYDATA
POINTS 441 float
0.000000 0.000000 0.000000
1.000000 0.000000 0.000000
1.000000 1.000000 0.000000
0.000000 1.000000 0.000000
0.050000 0.000000 0.000000
0.100000 0.000000 0.000000
0.150000 0.000000 0.000000
0.200000 0.000000 0.000000
0.250000 0.000000 0.000000
0.300000 0.000000 0.000000
0.350000 0.000000 0.000000
0.400000 0.000000 0.000000
0.450000 0.000000 0.000000
0.500000 0.000000 0.000000
0.550000 0.000000 0.000000
0.600000 0.000000 0.000000
0.650000 0.000000 0.000000
0.700000 0.000000 0.000000
0.750000 0.000000 0.000000
0.800000 0.000000 0.000000
0.850000 0.000000 0.000000
0.900000 0.000000 0.000000
0.950000 0.000000 0.000000
1.000000 0.050000 0.000000
1.000000 0.100000 0.000000
1.000000 0.150000 0.000000
1.000000 0.200000 0.000000
1.000000 0.250000 0.000000
1.000000 0.300000 0.000000
1.000000 0.350000 0.000000
1.000000 0.400000 0.000000
1.000000 0.450000 0.000000
1.000000 0.500000 0.000000
1.000000 0.550000 0.000000
1.000000 0.600000 0.000000
1.000000 0.650000 0.000000
1.000000 0.700000 0.000000
1.000000 0.750000 0.000000
1.000000 0.800000 0.000000
1.000000 0.850000 0.000000
1.000000 0.900000 0.000000
1.000000 0.950000 0.000000
0.950000 1.000000 0.000000
0.900000 1.000000 0.000000
0.850000 1.000000 0.000000
0.800000 1.000000 0.000000
0.750000 1.000000 0.000000
0.700000 1.000000 0.000000
0.650000 1.000000 0.000000
0.600000 1.000000 0.000000
0.550000 1.000000 0.000000
0.500000 1.000000 0.000000
0.450000 1.000000 0.000000
0.400000 1.000000 0.000000
0.350000 1.000000 0.000000
0.300000 1.000000 0.000000
0.250000 1.000000 0.000000
0.200000 1.000000 0.000000
0.150000 1.000000 0.000000
0.100000 1.000000 0.000000
0.050000 1.000000 0.000000
0.000000 0.950000 0.000000
0.000000 0.900000 0.000000
0.000000 0.850000 0.000000
0.000000 0.800000 0.000000
0.000000 0.750000 0.000000
0.000000 0.700000 0.000000
0.000000 0.650000 0.000000
0.000000 0.600000 0.000000
0.000000 0.550000 0.000000
0.000000 0.500000 0.000000
0.000000 0.450000 0.000000
0.000000 0.400000 0.000000
0.000000 0.350000 0.000000
0.000000 0.300000 0.000000
0.000000 0.250000 0.000000
0.000000 0.200000 0.000000
0.000000 0.150000 0.000000
0.000000 0.100000 0.000000
0.000000 0.050000 0.000000
0.050000 0.050000 0.000000
0.050000 0.100000 0.000000
0.050000 0.150000 0.000000
0.050000 0.200000 0.000000
0.050000 0.250000 0.000000
0.050000 0.300000 0.000000
0.050000 0.350000 0.000000
0.050000 0.400000 0.000000
0.050000 0.450000 0.000000
0.050000 0.500000 0.000000
0.050000 0.550000 0.000000
0.050000 0.600000 0.000000
0.050000 0.650000 0.000000
0.050000 0.700000 0.000000
0.050000 0.750000 0.000000
0.050000 0.800000 0.000000
0.050000 0.850000 0.000000
0.050000 0.900000 0.000000
0.050000 0.950000 0.000000
0.100000 0.050000 0.000000
0.100000 0.100000 0.000000
0.100000 0.150000 0.000000
0.100000 0.200000 0.000000
0.100000 0.250000 0.000000
0.100000 0.300000 0.000000
0.100000 0.350000 0.000000
0.100000 0.400000 0.000000
0.100000 0.450000 0.000000
0.100000 0.500000 0.000000
0.100000 0.550000 0.000000
0.100000 0.600000 0.000000
0.100000 0.650000 0.000000
0.100000 0.700000 0.000000
0.100000 0.750000 0.000000
0.100000 0.800000 0.000000
0.100000 0.850000 0.000000
0.100000 0.900000 0.000000
0.100000 0.950000 0.000000
0.150000 0.050000 0.000000
0.150000 0.100000 0.000000
0.150000 0.150000 0.000000
0.150000 0.200000 0.000000
0.150000 0.250000 0.000000
0.150000 0.300000 0.000000
0.150000 0.350000 0.000000
0.150000 0.400000 0.000000
0.150000 0.450000 0.000000
0.150000 0.500000 0.000000
0.150000 0.550000 0.000000
0.150000 0.600000 0.000000
0.150000 0.650000 0.000000
0.150000 0.700000 0.000000
0.150000 0.750000 0.000000
0.150000 0.800000 0.000000
0.150000 0.850000 0.000000
0.150000 0.900000 0.000000
0.150000 0.950000 0.000000
0.200000 0.050000 0.000000
0.200000 0.100000 0.000000
0.200000 0.150000 0.000000
0.200000 0.200000 0.000000
0.200000 0.250000 0.000000
0.200000 0.300000 0.000000
0.200000 0.350000 0.000000
0.200000 0.400000 0.000000
0.200000 0.450000 0.000000
0.200000 0.500000 0.000000
0.200000 0.550000 0.000000
0.200000 0.600000 0.000000
0.200000 0.650000 0.000000
0.200000 0.700000 0.000000
0.200000 0.750000 0.000000
0.200000 0.800000 0.000000
0.200000 0.850000 0.000000
0.200000 0.900000 0.000000
0.200000 0.950000 0.000000
0.250000 0.050000 0.000000
0.250000 0.100000 0.000000
0.250000 0.150000 0.000000
0.250000 0.200000 0.000000
0.250000 0.250000 0.000000
0.250000 0.300000 0.000000
0.250000 0.350000 0.000000
0.250000 0.400000 0.000000
0.250000 0.450000 0.000000
0.250000 0.500000 0.000000
0.250000 0.550000 0.000000
0.250000 0.600000 0.000000
0.250000 0.650000 0.000000
0.250000 0.700000 0.000000
0.250000 0.750000 0.000000
0.250000 0.800000 0.000000
0.250000 0.850000 0.000000
0.250000 0.900000 0.000000
0.250000 0.950000 0.000000
0.300000 0.050000 0.000000
0.300000 0.100000 0.000000
0.300000 0.150000 0.000000
0.300000 0.200000 0.000000
0.300000 0.250000 0.000000
0.300000 0.300000 0.000000
0.300000 0.350000 0.000000
0.300000 0.400000 0.000000
0.300000 0.450000 0.000000
0.300000 0.500000 0.000000
0.300000 0.550000 0.000000
0.300000 0.600000 0.000000
0.300000 0.650000 0.000000
0.300000 0.700000 0.000000
0.300000 0.750000 0.000000
0.300000 0.800000 0.000000
0.300000 0.850000 0.000000
0.300000 0.900000 0.000000
0.300000 0.950000 0.000000
0.350000 0.050000 0.000000
0.350000 0.100000 0.000000
0.350000 0.150000 0.000000
0.350000 0.200000 0.000000
0.350000 0.250000 0.000000
0.350000 0.300000 0.000000
0.350000 0.350000 0.000000
0.350000 0.400000 0.000000
0.350000 0.450000 0.000000
0.350000 0.500000 0.000000
0.350000 0.550000 0.000000
0.350000 0.600000 0.000000
0.350000 0.650000 0.000000
0.350000 0.700000 0.000000
0.350000 0.750000 0.000000
0.350000 0.800000 0.000000
0.350000 0.850000 0.000000
0.350000 0.900000 0.000000
0.350000 0.950000 0.000000
0.400000 0.050000 0.000000
0.400000 0.100000 0.000000
0.400000 0.150000 0.000000
0.400000 0.200000 0.000000
0.400000 0.250000 0.000000
0.400000 0.300000 0.000000
0.400000 0.350000 0.000000
0.400000 0.400000 0.000000
0.400000 0.450000 0.000000
0.400000 0.500000 0.000000
0.400000 0.550000 0.000000
0.400000 0.600000 0.000000
0.400000 0.650000 0.000000
0.400000 0.700000 0.000000
0.400000 0.750000 0.000000
0.400000 0.800000 0.000000
0.400000 0.850000 0.000000
0.400000 0.900000 0.000000
0.400000 0.950000 0.000000
0.450000 0.050000 0.000000
0.450000 0.100000 0.000000
0.450000 0.150000 0.000000
0.450000 0.200000 0.000000
0.450000 0.250000 0.000000
0.450000 0.300000 0.000000
0.450000 0.350000 0.000000
0.450000 0.400000 0.000000
0.450000 0.450000 0.000000
0.450000 0.500000 0.000000
0.450000 0.550000 0.000000
0.450000 0.600000 0.000000
0.450000 0.650000 0.000000
0.450000 0.700000 0.000000
0.450000 0.750000 0.000000
0.450000 0.800000 0.000000
0.450000 0.850000 0.000000
0.450000 0.900000 0.000000
0.450000 0.950000 0.000000
0.500000 0.050000 0.000000
0.500000 0.100000 0.000000
0.500000 0.150000 0.000000
0.500000 0.200000 0.000000
0.500000 0.250000 0.000000
0.500000 0.300000 0.000000
0.500000 0.350000 0.000000
0.500000 0.400000 0.000000
0.500000 0.450000 0.000000
0.500000 0.500000 0.000000
0.500000 0.550000 0.000000
0.500000 0.600000 0.000000
0.500000 0.650000 0.000000
0.500000 0.700000 0.000000
0.500000 0.750000 0.000000
0.500000 0.800000 0.000000
0.500000 0.850000 0.000000
0.500000 0.900000 0.000000
0.500000 0.950000 0.000000
0.550000 0.050000 0.000000
0.550000 0.100000 0.000000
0.550000 0.150000 0.000000
0.550000 0.200000 0.000000
0.550000 0.250000 0.000000
0.550000 0.300000 0.000000
0.550000 0.350000 0.000000
0.550000 0.400000 0.000000
0.550000 0.450000 0.000000
0.550000 0.500000 0.000000
0.550000 0.550000 0.000000
0.550000 0.600000 0.000000
0.550000 0.650000 0.000000
0.550000 0.700000 0.000000
0.550000 0.750000 0.000000
0.550000 0.800000 0.000000
0.550000 0.850000 0.000000
0.550000 0.900000 0.000000
0.550000 0.950000 0.000000
0.600000 0.050000 0.000000
0.600000 0.100000 0.000000
0.600000 0.150000 0.000000
0.600000 0.200000 0.000000
0.600000 0.250000 0.000000
0.600000 0.300000 0.000000
0.600000 0.350000 0.000000
0.600000 0.400000 0.000000
0.600000 0.450000 0.000000
0.600000 0.500000 0.000000
0.600000 0.550000 0.000000
0.600000 0.600000 0.000000
0.600000 0.650000 0.000000
0.600000 0.700000 0.000000
0.600000 0.750000 0.000000
0.600000 0.800000 0.000000
0.600000 0.850000 0.000000
0.600000 0.900000 0.000000
0.600000 0.950000 0.000000
0.650000 0.050000 0.000000
0.650000 0.100000 0.000000
0.650000 0.150000 0.000000
0.650000 0.200000 0.000000
0.650000 0.250000 0.000000
0.650000 0.300000 0.000000
0.650000 0.350000 0.000000
0.650000 0.400000 0.000000
0.650000 0.450000 0.000000
0.650000 0.500000 0.000000
0.650000 0.550000 0.000000
0.650000 0.600000 0.000000
0.650000 0.650000 0.000000
0.650000 0.700000 0.000000
0.650000 0.750000 0.000000
0.650000 0.800000 0.000000
0.650000 0.850000 0.000000
0.650000 0.900000 0.000000
0.650000 0.950000 0.000000
0.700000 0.050000 0.000000
0.700000 0.100000 0.000000
0.700000 0.150000 0.000000
0.700000 0.200000 0.000000
0.700000 0.250000 0.000000
0.700000 0.300000 0.000000
0.700000 0.350000 0.000000
0.700000 0.400000 0.000000
0.700000 0.450000 0.000000
0.700000 0.500000 0.000000
0.700000 0.550000 0.000000
0.700000 0.600000 0.000000
0.700000 0.650000 0.000000
0.700000 0.700000 0.000000
0.700000 0.750000 0.000000
0.700000 0.800000 0.000000
0.700000 0.850000 0.000000
0.700000 0.900000 0.000000
0.700000 0.950000 0.000000
0.750000 0.050000 0.000000
0.750000 0.100000 0.000000
0.750000 0.150000 0.000000
0.750000 0.200000 0.000000
0.750000 0.250000 0.000000
0.750000 0.300000 0.000000
0.750000 0.350000 0.000000
0.750000 0.400000 0.000000
0.750000 0.450000 0.000000
0.750000 0.500000 0.000000
0.750000 0.550000 0.000000
0.750000 0.600000 0.000000
0.750000 0.650000 0.000000
0.750000 0.700000 0.000000
0.750000 0.750000 0.000000
0.750000 0.800000 0.000000
0.750000 0.850000 0.000000
0.750000 0.900000 0.000000
0.750000 0.950000 0.000000
0.800000 0.050000 0.000000
0.800000 0.100000 0.000000
[...]
CELL_DATA 800
SCALARS PRESSURE float 1
LOOKUP_TABLE default
0.000000
-0.000002
0.000054
-0.000101
0.000079
-0.000063
0.000084
-0.000077
-0.000033
0.000143
0.000091
-0.000439
0.000194
0.000196
-0.000111
-0.000071
0.000068
-0.000005
-0.000103
0.000177
-0.000075
-0.000011
-0.000128
0.000246
-0.000032
-0.000208
0.000060
0.000159
-0.000129
0.000071
-0.000086
0.000096
0.000041
-0.000175
0.000079
0.000081
-0.000061
-0.000003
0.000015
-0.000005
-0.000002
0.000107
0.000011
-0.000383
0.000477
-0.000327
0.000021
-0.000033
0.000269
-0.000103
0.000051
-0.000225
0.000654
-0.001099
0.000261
0.000818
-0.000580
0.000099
0.000010
-0.000065
-0.000375
0.000835
-0.000442
0.000200
-0.000594
0.000805
-0.000091
-0.000754
0.000330
0.000359
0.000038
-0.000432
0.000155
-0.000144
-0.000143
0.000426
-0.000168
-0.000132
0.000094
-0.000017
0.000054
0.000112
-0.000450
0.000543
0.000283
-0.001146
0.000136
0.001214
-0.000066
-0.001114
-0.000080
0.001008
-0.000556
-0.000341
0.001078
-0.001412
-0.000207
0.002053
-0.001273
-0.000214
0.000946
-0.000439
-0.000863
0.001192
-0.000264
0.000393
-0.000410
-0.000817
0.001239
-0.000508
0.000064
-0.000444
0.000760
-0.000976
-0.000018
0.001968
-0.000808
-0.000862
0.000488
-0.000002
-0.000000
0.000079
0.000372
-0.000331
-0.000918
0.000591
0.001032
-0.000958
-0.001394
0.001814
0.001219
-0.002141
-0.000865
0.002673
-0.000277
-0.002715
0.001609
0.001673
-0.001050
-0.000137
-0.001133
0.000827
0.000449
-0.000272
0.000177
0.000005
-0.000402
-0.000048
0.000241
0.000004
-0.000384
0.000482
0.000149
-0.002629
0.002157
0.001014
-0.001360
-0.000217
0.000390
-0.000053
0.000068
0.000353
-0.001243
0.000641
0.000879
-0.000593
-0.001272
0.001754
0.001385
-0.001813
-0.002624
0.002739
0.001793
-0.001752
-0.002779
0.001762
0.002222
-0.001561
-0.001526
0.000797
0.001835
-0.001152
-0.000825
0.001928
-0.000473
-0.000795
0.000126
-0.000045
0.001024
-0.002024
0.001128
0.000275
-0.000997
0.000256
0.001511
-0.000736
-0.000322
0.000288
-0.000068
0.000051
-0.000016
-0.000161
0.000203
0.000937
-0.000263
-0.002220
0.001279
0.001580
-0.003462
0.001842
0.002393
-0.002576
-0.003039
0.004831
0.000875
-0.003254
-0.001285
0.002854
0.001022
-0.001108
-0.000984
-0.000180
0.001213
0.000614
-0.001074
-0.000102
0.000337
-0.000055
-0.000292
-0.000171
0.001645
-0.002618
0.001825
-0.000994
-0.000106
0.001160
-0.000487
-0.000700
0.000482
-0.000049
0.000057
-0.000224
0.001662
-0.002294
-0.002738
0.005083
0.001372
-0.005108
0.000549
0.004920
-0.004215
-0.000496
0.003993
-0.001413
-0.005035
0.005296
0.002006
-0.003426
-0.001989
0.002105
0.000854
-0.001247
0.000756
0.000015
-0.000325
0.000060
-0.000048
0.000003
0.000741
-0.001238
-0.000549
0.000065
0.001472
-0.002175
0.001680
0.000086
-0.000539
0.000363
-0.000022
-0.000007
-0.000111
0.001059
-0.001176
-0.002733
0.004701
0.000450
-0.005282
0.000951
0.003424
-0.000292
-0.002220
0.000840
-0.002170
0.002149
0.003863
-0.003880
-0.004628
0.006184
0.001842
-0.003962
-0.000572
0.002666
-0.000626
-0.000940
0.000431
0.000205
-0.000204
0.000071
0.000050
-0.000518
0.001444
-0.001715
-0.000116
0.000157
0.001034
-0.001000
0.000581
-0.000142
0.000050
0.000029
-0.000090
0.001328
-0.000642
-0.003227
0.000719
0.003023
0.000941
-0.003146
-0.000718
0.003500
-0.001004
-0.001241
0.001464
0.001253
-0.005047
0.002133
0.004991
-0.002226
-0.005125
0.002688
0.003252
-0.003107
-0.000690
0.001732
0.000026
-0.000463
-0.000396
0.000553
-0.000320
-0.000563
-0.000203
-0.000769
0.002134
-0.001405
0.000032
0.000920
-0.000037
-0.000617
0.000317
0.000005
-0.000063
0.001405
-0.001074
-0.003312
0.003906
0.001252
-0.002509
-0.002076
0.002931
0.002201
-0.002950
-0.001377
0.000661
0.002047
0.001477
-0.002429
-0.003331
0.004026
0.002050
-0.001824
-0.002938
0.002015
0.002062
-0.002767
-0.000737
0.002946
-0.000390
-0.001697
0.000082
0.001502
0.000495
-0.002466
0.000565
-0.000251
0.001166
-0.000216
-0.000774
0.000849
-0.000156
-0.000022
0.000017
0.001338
-0.002186
-0.001603
0.002212
0.000450
-0.000300
-0.002620
0.002496
0.001397
-0.002156
0.000566
0.001601
0.000229
-0.003035
-0.000015
0.004111
-0.000605
-0.003694
0.001371
0.001185
0.001087
-0.002140
-0.001518
0.003240
0.000088
-0.002675
0.001038
0.001412
-0.001869
-0.001694
0.001561
0.000925
-0.001165
0.000746
-0.000556
0.000228
0.000962
-0.000661
-0.000008
-0.000169
0.001205
-0.000505
-0.002427
0.001274
0.002219
-0.001238
-0.002351
0.002906
-0.000274
0.000177
-0.001769
-0.000382
0.002957
0.000472
-0.002684
-0.000911
0.002208
0.001684
-0.003017
-0.000197
0.003000
-0.002032
-0.000815
0.000277
0.001069
-0.000146
0.000032
-0.002063
0.001540
0.002383
-0.003304
-0.000466
0.002083
-0.000162
-0.001144
0.000188
0.001468
-0.000811
-0.000065
0.000107
0.000673
-0.001695
-0.000736
0.002648
-0.001089
-0.000594
-0.000769
0.001070
0.000794
-0.000346
-0.001509
0.002552
0.001094
-0.002961
-0.000971
0.002160
0.002452
-0.003157
-0.001787
0.001923
0.002094
-0.000946
-0.002440
0.000603
0.002634
-0.001037
-0.002119
0.000604
0.002852
-0.003172
-0.001782
0.003075
-0.000333
-0.000777
-0.000343
0.000835
0.001246
-0.001124
-0.000011
-0.000154
0.000317
-0.000051
-0.000557
-0.000513
0.001022
0.000580
-0.001803
0.002505
-0.001292
-0.000107
-0.000258
0.000417
0.000298
-0.000283
-0.000646
0.001051
0.000295
-0.000909
-0.001052
0.001750
0.001570
-0.003459
-0.000225
0.001962
0.001621
-0.002630
-0.001057
0.001583
0.001561
-0.002153
0.000600
-0.000204
0.000523
0.000484
-0.001589
0.001045
0.000920
-0.000761
-0.000081
-0.000022
0.000165
-0.000447
-0.000590
0.001922
-0.001021
-0.000567
0.000405
0.000263
-0.001725
0.002543
-0.001253
0.000500
0.000401
-0.000278
-0.000254
-0.000798
0.002828
-0.001695
-0.001120
0.000800
0.000151
0.000184
-0.000637
-0.000605
0.003090
-0.001850
-0.002217
0.000742
0.002214
-0.001079
-0.001705
0.000975
0.001131
-0.001233
-0.000114
0.001081
-0.000011
-0.000472
0.000009
0.000052
-0.000318
-0.000085
0.000907
-0.000013
-0.002137
0.001342
0.001573
-0.000294
-0.001943
0.001351
-0.000674
0.000487
-0.000344
0.000656
-0.000861
0.001078
0.000026
-0.001385
0.001478
-0.001090
0.001037
-0.000709
-0.001609
0.001100
0.002810
-0.002908
-0.001492
0.001864
0.001568
-0.002644
0.000954
0.001071
-0.001196
0.000051
0.000890
-0.000127
-0.000391
0.000084
-0.000046
-0.000015
-0.000518
0.001071
-0.000200
-0.000942
0.000021
0.002080
-0.001402
-0.001722
0.001592
0.001055
-0.001887
0.000944
-0.000220
-0.000155
0.000493
-0.000184
-0.000373
0.000279
0.000514
-0.000826
0.000804
-0.001595
0.001134
0.001278
-0.000512
-0.002623
0.001929
0.001486
-0.002352
0.000244
0.001641
-0.001007
-0.000797
0.001198
0.000051
-0.000332
-0.000027
-0.000003
-0.000009
0.000039
-0.000100
-0.000221
0.000293
0.000075
0.000151
-0.000753
-0.000034
0.002230
-0.001624
-0.001315
0.001664
0.000522
-0.002125
0.001165
0.000823
-0.000842
-0.000215
0.000227
0.000178
-0.000345
0.000190
-0.000227
0.000853
-0.001290
-0.000089
0.000921
0.000568
-0.002052
0.000455
0.001390
-0.000668
-0.000506
0.000393
0.000645
-0.000742
0.000097
0.000014
0.000000
0.000006
-0.000060
-0.000118
0.000456
-0.000536
0.000322
0.000091
0.000167
0.000452
-0.001592
-0.000078
0.001649
0.000253
-0.001912
0.000529
0.001043
-0.000470
-0.000626
0.000735
-0.000146
-0.000010
-0.000301
-0.000034
0.000460
0.000236
-0.000571
0.000007
0.000192
-0.000164
0.000579
-0.000379
-0.000023
-0.000366
0.000870
-0.000253
-0.000398
0.000173
0.000006
-0.000026
0.000018
0.000003
0.000000
-0.000039
0.000102
-0.000210
0.000235
0.000051
-0.000272
0.000080
0.000026
0.000189
-0.000234
-0.000148
0.000240
0.000300
-0.000520
-0.000144
0.000477
0.000171
-0.000550
-0.000047
0.000469
0.000016
-0.000384
0.000054
0.000142
-0.000052
0.000054
-0.000099
0.000040
-0.000082
0.000182
-0.000114
0.000018
0.000011
-0.000026
0.000035
-0.000035
0.000011
0.000003
0.000000
