# vtk DataFile Version 2.0
SquarePlate_mix
ASCII
DATASET POLYDATA
POINTS 441 float
0.000000 0.000000 0.000000
1.000000 0.000000 0.000000
1.000000 1.000000 0.000000
0.000000 1.000000 0.000000
0.050000 0.000000 0.000000
0.100000 0.000000 0.000000
0.150000 0.000000 0.000000
0.200000 0.000000 0.000000
0.250000 0.000000 0.000000
0.300000 0.000000 0.000000
0.350000 0.000000 0.000000
0.400000 0.000000 0.000000
0.450000 0.000000 0.000000
0.500000 0.000000 0.000000
0.550000 0.000000 0.000000
0.600000 0.000000 0.000000
0.650000 0.000000 0.000000
0.700000 0.000000 0.000000
0.750000 0.000000 0.000000
0.800000 0.000000 0.000000
0.850000 0.000000 0.000000
0.900000 0.000000 0.000000
0.950000 0.000000 0.000000
1.000000 0.050000 0.000000
1.000000 0.100000 0.000000
1.000000 0.150000 0.000000
1.000000 0.200000 0.000000
1.000000 0.250000 0.000000
1.000000 0.300000 0.000000
1.000000 0.350000 0.000000
1.000000 0.400000 0.000000
1.000000 0.450000 0.000000
1.000000 0.500000 0.000000
1.000000 0.550000 0.000000
1.000000 0.600000 0.000000
1.000000 0.650000 0.000000
1.000000 0.700000 0.000000
1.000000 0.750000 0.000000
1.000000 0.800000 0.000000
1.000000 0.850000 0.000000
1.000000 0.900000 0.000000
1.000000 0.950000 0.000000
0.950000 1.000000 0.000000
0.900000 1.000000 0.000000
0.850000 1.000000 0.000000
0.800000 1.000000 0.000000
0.750000 1.000000 0.000000
0.700000 1.000000 0.000000
0.650000 1.000000 0.000000
0.600000 1.000000 0.000000
0.550000 1.000000 0.000000
0.500000 1.000000 0.000000
0.450000 1.000000 0.000000
0.400000 1.000000 0.000000
0.350000 1.000000 0.000000
0.300000 1.000000 0.000000
0.250000 1.000000 0.000000
0.200000 1.000000 0.000000
0.150000 1.000000 0.000000
0.100000 1.000000 0.000000
0.050000 1.000000 0.000000
0.000000 0.950000 0.000000
0.000000 0.900000 0.000000
0.000000 0.850000 0.000000
0.000000 0.800000 0.000000
0.000000 0.750000 0.000000
0.000000 0.700000 0.000000
0.000000 0.650000 0.000000
0.000000 0.600000 0.000000
0.000000 0.550000 0.000000
0.000000 0.500000 0.000000
0.000000 0.450000 0.000000
0.000000 0.400000 0.000000
0.000000 0.350000 0.000000
0.000000 0.300000 0.000000
0.000000 0.250000 0.000000
0.000000 0.200000 0.000000
0.000000 0.150000 0.000000
0.000000 0.100000 0.000000
0.000000 0.050000 0.000000
0.050000 0.050000 0.000000
0.050000 0.100000 0.000000
0.050000 0.150000 0.000000
0.050000 0.200000 0.000000
0.050000 0.250000 0.000000
0.050000 0.300000 0.000000
0.050000 0.350000 0.000000
0.050000 0.400000 0.000000
0.050000 0.450000 0.000000
0.050000 0.500000 0.000000
0.050000 0.550000 0.000000
0.050000 0.600000 0.000000
0.050000 0.650000 0.000000
0.050000 0.700000 0.000000
0.050000 0.750000 0.000000
0.050000 0.800000 0.000000
0.050000 0.850000 0.000000
0.050000 0.900000 0.000000
0.050000 0.950000 0.000000
0.100000 0.050000 0.000000
0.100000 0.100000 0.000000
0.100000 0.150000 0.000000
0.100000 0.200000 0.000000
0.100000 0.250000 0.000000
0.100000 0.300000 0.000000
0.100000 0.350000 0.000000
0.100000 0.400000 0.000000
0.100000 0.450000 0.000000
0.100000 0.500000 0.000000
0.100000 0.550000 0.000000
0.100000 0.600000 0.000000
0.100000 0.650000 0.000000
0.100000 0.700000 0.000000
0.100000 0.750000 0.000000
0.100000 0.800000 0.000000
0.100000 0.850000 0.000000
0.100000 0.900000 0.000000
0.100000 0.950000 0.000000
0.150000 0.050000 0.000000
0.150000 0.100000 0.000000
0.150000 0.150000 0.000000
0.150000 0.200000 0.000000
0.150000 0.250000 0.000000
0.150000 0.300000 0.000000
0.150000 0.350000 0.000000
0.150000 0.400000 0.000000
0.150000 0.450000 0.000000
0.150000 0.500000 0.000000
0.150000 0.550000 0.000000
0.150000 0.600000 0.000000
0.150000 0.650000 0.000000
0.150000 0.700000 0.000000
0.150000 0.750000 0.000000
0.150000 0.800000 0.000000
0.150000 0.850000 0.000000
0.150000 0.900000 0.000000
0.150000 0.950000 0.000000
0.200000 0.050000 0.000000
0.200000 0.100000 0.000000
0.200000 0.150000 0.000000
0.200000 0.200000 0.000000
0.200000 0.250000 0.000000
0.200000 0.300000 0.000000
0.200000 0.350000 0.000000
0.200000 0.400000 0.000000
0.200000 0.450000 0.000000
0.200000 0.500000 0.000000
0.200000 0.550000 0.000000
0.200000 0.600000 0.000000
0.200000 0.650000 0.000000
0.200000 0.700000 0.000000
0.200000 0.750000 0.000000
0.200000 0.800000 0.000000
0.200000 0.850000 0.000000
0.200000 0.900000 0.000000
0.200000 0.950000 0.000000
0.250000 0.050000 0.000000
0.250000 0.100000 0.000000
0.250000 0.150000 0.000000
0.250000 0.200000 0.000000
0.250000 0.250000 0.000000
0.250000 0.300000 0.000000
0.250000 0.350000 0.000000
0.250000 0.400000 0.000000
0.250000 0.450000 0.000000
0.250000 0.500000 0.000000
0.250000 0.550000 0.000000
0.250000 0.600000 0.000000
0.250000 0.650000 0.000000
0.250000 0.700000 0.000000
0.250000 0.750000 0.000000
0.250000 0.800000 0.000000
0.250000 0.850000 0.000000
0.250000 0.900000 0.000000
0.250000 0.950000 0.000000
0.300000 0.050000 0.000000
0.300000 0.100000 0.000000
0.300000 0.150000 0.000000
0.300000 0.200000 0.000000
0.300000 0.250000 0.000000
0.300000 0.300000 0.000000
0.300000 0.350000 0.000000
0.300000 0.400000 0.000000
0.300000 0.450000 0.000000
0.300000 0.500000 0.000000
0.300000 0.550000 0.000000
0.300000 0.600000 0.000000
0.300000 0.650000 0.000000
0.300000 0.700000 0.000000
0.300000 0.750000 0.000000
0.300000 0.800000 0.000000
0.300000 0.850000 0.000000
0.300000 0.900000 0.000000
0.300000 0.950000 0.000000
0.350000 0.050000 0.000000
0.350000 0.100000 0.000000
0.350000 0.150000 0.000000
0.350000 0.200000 0.000000
0.350000 0.250000 0.000000
0.350000 0.300000 0.000000
0.350000 0.350000 0.000000
0.350000 0.400000 0.000000
0.350000 0.450000 0.000000
0.350000 0.500000 0.000000
0.350000 0.550000 0.000000
0.350000 0.600000 0.000000
0.350000 0.650000 0.000000
0.350000 0.700000 0.000000
0.350000 0.750000 0.000000
0.350000 0.800000 0.000000
0.350000 0.850000 0.000000
0.350000 0.900000 0.000000
0.350000 0.950000 0.000000
0.400000 0.050000 0.000000
0.400000 0.100000 0.000000
0.400000 0.150000 0.000000
0.400000 0.200000 0.000000
0.400000 0.250000 0.000000
0.400000 0.300000 0.000000
0.400000 0.350000 0.000000
0.400000 0.400000 0.000000
0.400000 0.450000 0.000000
0.400000 0.500000 0.000000
0.400000 0.550000 0.000000
0.400000 0.600000 0.000000
0.400000 0.650000 0.000000
0.400000 0.700000 0.000000
0.400000 0.750000 0.000000
0.400000 0.800000 0.000000
0.400000 0.850000 0.000000
0.400000 0.900000 0.000000
0.400000 0.950000 0.000000
0.450000 0.050000 0.000000
0.450000 0.100000 0.000000
0.450000 0.150000 0.000000
0.450000 0.200000 0.000000
0.450000 0.250000 0.000000
0.450000 0.300000 0.000000
0.450000 0.350000 0.000000
0.450000 0.400000 0.000000
0.450000 0.450000 0.000000
0.450000 0.500000 0.000000
0.450000 0.550000 0.000000
0.450000 0.600000 0.000000
0.450000 0.650000 0.000000
0.450000 0.700000 0.000000
0.450000 0.750000 0.000000
0.450000 0.800000 0.000000
0.450000 0.850000 0.000000
0.450000 0.900000 0.000000
0.450000 0.950000 0.000000
0.500000 0.050000 0.000000
0.500000 0.100000 0.000000
0.500000 0.150000 0.000000
0.500000 0.200000 0.000000
0.500000 0.250000 0.000000
0.500000 0.300000 0.000000
0.500000 0.350000 0.000000
0.500000 0.400000 0.000000
0.500000 0.450000 0.000000
0.500000 0.500000 0.000000
0.500000 0.550000 0.000000
0.500000 0.600000 0.000000
0.500000 0.650000 0.000000
0.500000 0.700000 0.000000
0.500000 0.750000 0.000000
0.500000 0.800000 0.000000
0.500000 0.850000 0.000000
0.500000 0.900000 0.000000
0.500000 0.950000 0.000000
0.550000 0.050000 0.000000
0.550000 0.100000 0.000000
0.550000 0.150000 0.000000
0.550000 0.200000 0.000000
0.550000 0.250000 0.000000
0.550000 0.300000 0.000000
0.550000 0.350000 0.000000
0.550000 0.400000 0.000000
0.550000 0.450000 0.000000
0.550000 0.500000 0.000000
0.550000 0.550000 0.000000
0.550000 0.600000 0.000000
0.550000 0.650000 0.000000
0.550000 0.700000 0.000000
0.550000 0.750000 0.000000
0.550000 0.800000 0.000000
0.550000 0.850000 0.000000
0.550000 0.900000 0.000000
0.550000 0.950000 0.000000
0.600000 0.050000 0.000000
0.600000 0.100000 0.000000
0.600000 0.150000 0.000000
0.600000 0.200000 0.000000
0.600000 0.250000 0.000000
0.600000 0.300000 0.000000
0.600000 0.350000 0.000000
0.600000 0.400000 0.000000
0.600000 0.450000 0.000000
0.600000 0.500000 0.000000
0.600000 0.550000 0.000000
0.600000 0.600000 0.000000
0.600000 0.650000 0.000000
0.600000 0.700000 0.000000
0.600000 0.750000 0.000000
0.600000 0.800000 0.000000
0.600000 0.850000 0.000000
0.600000 0.900000 0.000000
0.600000 0.950000 0.000000
0.650000 0.050000 0.000000
0.650000 0.100000 0.000000
0.650000 0.150000 0.000000
0.650000 0.200000 0.000000
0.650000 0.250000 0.000000
0.650000 0.300000 0.000000
0.650000 0.350000 0.000000
0.650000 0.400000 0.000000
0.650000 0.450000 0.000000
0.650000 0.500000 0.000000
0.650000 0.550000 0.000000
0.650000 0.600000 0.000000
0.650000 0.650000 0.000000
0.650000 0.700000 0.000000
0.650000 0.750000 0.000000
0.650000 0.800000 0.000000
0.650000 0.850000 0.000000
0.650000 0.900000 0.000000
0.650000 0.950000 0.000000
0.700000 0.050000 0.000000
0.700000 0.100000 0.000000
0.700000 0.150000 0.000000
0.700000 0.200000 0.000000
0.700000 0.250000 0.000000
0.700000 0.300000 0.000000
0.700000 0.350000 0.000000
0.700000 0.400000 0.000000
0.700000 0.450000 0.000000
0.700000 0.500000 0.000000
0.700000 0.550000 0.000000
0.700000 0.600000 0.000000
0.700000 0.650000 0.000000
0.700000 0.700000 0.000000
0.700000 0.750000 0.000000
0.700000 0.800000 0.000000
0.700000 0.850000 0.000000
0.700000 0.900000 0.000000
0.700000 0.950000 0.000000
0.750000 0.050000 0.000000
0.750000 0.100000 0.000000
0.750000 0.150000 0.000000
0.750000 0.200000 0.000000
0.750000 0.250000 0.000000
0.750000 0.300000 0.000000
0.750000 0.350000 0.000000
0.750000 0.400000 0.000000
0.750000 0.450000 0.000000
0.750000 0.500000 0.000000
0.750000 0.550000 0.000000
0.750000 0.600000 0.000000
0.750000 0.650000 0.000000
0.750000 0.700000 0.000000
0.750000 0.750000 0.000000
0.750000 0.800000 0.000000
0.750000 0.850000 0.000000
0.750000 0.900000 0.000000
0.750000 0.950000 0.000000
0.800000 0.050000 0.000000
0.800000 0.100000 0.000000
[...]
CELL_DATA 800
SCALARS PRESSURE float 1
LOOKUP_TABLE default
-0.000000
-0.004087
-0.004087
0.026451
0.028102
-0.026933
-0.019681
-0.024309
-0.011175
-0.049503
-0.018495
0.089856
0.136751
-0.117627
-0.041748
-0.087812
-0.000660
-0.139796
-0.039985
-0.112549
-0.016535
-0.171710
-0.057659
-0.048209
0.054737
-0.254555
-0.163098
-0.019783
0.067340
-0.208292
-0.154501
0.015238
0.080146
-0.139336
-0.116585
0.040018
0.065882
-0.015339
-0.013762
-0.005514
-0.001651
0.024351
0.017099
-0.113923
-0.130070
0.105164
0.100979
0.016737
0.009012
0.132070
0.146096
-0.654890
-0.584130
0.165471
0.274229
-0.100170
0.054385
0.016382
0.212608
-0.103535
0.140971
0.072750
0.335118
-0.369508
-0.120560
0.438525
0.700176
-0.414876
-0.210402
0.529082
0.712668
-0.437546
-0.309477
0.441930
0.520342
-0.325957
-0.272712
0.061503
0.069216
-0.007203
0.003014
-0.054814
-0.081637
0.325164
0.287655
-0.211605
-0.265302
0.114722
0.040497
-0.239989
-0.284135
1.312131
1.328380
-0.239622
-0.188322
-0.127463
-0.016181
0.034887
0.232045
-0.404339
-0.134592
-0.166558
0.134978
-0.100973
0.221289
-0.831547
-0.485809
-0.152601
0.170903
-0.812548
-0.526658
0.118475
0.313004
-0.822249
-0.674138
0.373427
0.465055
-0.123824
-0.104470
0.004111
-0.001661
0.139046
0.102837
-0.683264
-0.763722
0.718610
0.597567
-0.170600
-0.329994
0.761482
0.611802
-2.011544
-2.116218
0.421359
0.366608
0.210422
0.241516
-0.460529
-0.336091
0.436684
0.648483
-0.517155
-0.227657
0.365727
0.698697
-0.031892
0.336556
0.479839
0.865041
-0.178937
0.161755
0.276554
0.523338
0.335106
0.532337
-0.472559
-0.345551
0.062080
0.096909
-0.000841
-0.003229
-0.283661
-0.327042
1.476699
1.365590
-1.433934
-1.603822
0.847654
0.617294
-1.019488
-1.266392
2.529554
2.298445
0.126158
-0.051817
-0.527444
-0.610626
0.868695
0.871816
-0.198957
-0.085899
0.171276
0.408192
-0.536789
-0.244039
-0.648755
-0.309023
-0.512555
-0.132057
-0.368232
-0.012359
-0.374409
-0.094731
-0.956811
-0.744757
0.610340
0.734493
-0.203474
-0.161322
-0.009108
0.003684
0.350289
0.308282
-1.603869
-1.718595
1.564546
1.357696
-0.120441
-0.392315
0.755180
0.444430
-1.481733
-1.801087
-0.208226
-0.486461
0.922797
0.722711
-0.239863
-0.359374
-0.889310
-0.892373
0.625019
0.753794
0.018870
0.230313
1.089283
1.360597
-0.403387
-0.082786
0.334007
0.664714
-0.211767
0.068253
0.953888
1.160003
-0.949626
-0.831390
0.152004
0.198694
-0.008186
-0.008976
-0.415800
-0.458277
1.864183
1.739165
-1.267591
-1.484444
-0.341638
-0.623470
0.955679
0.603203
0.054988
-0.316464
1.426487
1.082189
-0.818091
-1.111910
-0.228945
-0.444924
2.208971
2.087581
-1.434108
-1.435198
-0.305401
-0.196683
-0.929535
-0.759192
-0.372627
-0.145821
-0.069733
0.191524
-0.241948
-0.017093
-1.108381
-0.932550
0.846131
0.958851
-0.217101
-0.176761
-0.001301
-0.008909
0.534801
0.498964
-2.086185
-2.204328
1.588836
1.394260
0.639908
0.374315
-1.031791
-1.380360
1.163613
0.797652
-1.231914
-1.602272
1.064796
0.709236
1.228492
0.940632
-2.693579
-2.914564
2.320534
2.200430
0.291090
0.278042
0.718572
0.761343
0.574261
0.689578
-0.416687
-0.262437
0.180344
0.315882
0.799106
0.927995
-0.988131
-0.902003
0.151947
0.175538
-0.003497
-0.000934
-0.489675
-0.509083
1.940687
1.869783
-1.157466
-1.310499
-0.309389
-0.525429
0.533454
0.240778
0.221050
-0.097557
0.174597
-0.175772
0.589688
0.228959
-1.691406
-2.016943
3.718959
3.417314
-2.829574
-3.053298
1.124610
0.986314
-1.444687
-1.534369
0.468550
0.460935
-0.177715
-0.142959
0.187839
0.235494
-1.003561
-0.934527
1.002717
1.042620
-0.198408
-0.186286
-0.008691
-0.015429
0.369698
0.363865
-1.403894
-1.449919
0.894033
0.803156
-0.228556
-0.358757
1.363337
1.144270
-2.229089
-2.483012
2.491285
2.200570
-2.234793
-2.558889
3.377506
3.046020
-4.151919
-4.482637
3.468580
3.176512
-2.368189
-2.622549
2.883905
2.674968
-2.158276
-2.287948
1.418170
1.333603
-0.955655
-1.002788
1.392537
1.375216
-1.234042
-1.248591
0.265413
0.264950
-0.001021
-0.006330
-0.182105
-0.177241
0.710700
0.687094
-0.251916
-0.246179
0.268686
0.238374
-1.543485
-1.664347
2.830794
2.702605
-3.011378
-3.188637
3.278208
3.014478
-3.772719
-4.064375
3.953455
3.639706
-1.403151
-1.736852
1.343874
1.007451
-0.877607
-1.180360
1.381562
1.129160
-0.241449
-0.439553
0.322109
0.186359
-0.795524
-0.886752
1.167658
1.120302
-0.237099
-0.244804
0.008976
0.011807
0.057011
0.065888
-0.335143
-0.316503
-0.204998
-0.116629
-0.348009
-0.290938
1.417739
1.416914
-2.030352
-2.028322
1.983728
1.902028
-2.067990
-2.229513
3.346683
3.150560
-2.443491
-2.734840
-0.451065
-0.793284
1.735575
1.390902
-1.760731
-2.115441
1.385799
1.038549
-1.125850
-1.415609
1.081420
0.867671
0.369545
0.213161
-0.955096
-1.030149
0.230552
0.206202
0.003750
0.015413
-0.114530
-0.093614
0.525119
0.595605
-0.702272
-0.568132
1.769438
1.920118
-2.986844
-2.834539
1.961222
2.081967
-0.992993
-0.972749
0.715717
0.696231
-2.451174
-2.543586
2.131739
1.897066
1.467914
1.171539
-2.663926
-2.990179
3.005263
2.631719
-1.378935
-1.759797
1.276214
0.942364
-0.750412
-1.022636
-0.124491
-0.325465
1.066145
0.957345
-0.168660
-0.209046
0.001478
0.007603
0.029174
0.076033
-0.282808
-0.171403
0.296329
0.467963
-1.753752
-1.512601
2.693902
2.949632
-1.349799
-1.121684
-0.653041
-0.486634
0.582908
0.689967
1.152232
1.152971
-1.413785
-1.526823
-1.208946
-1.414201
2.553085
2.259914
-1.538661
-1.894064
0.437856
0.068886
0.378541
0.036412
0.331844
0.038053
0.608037
0.393050
-0.830632
-0.959406
0.221006
0.174254
0.002417
0.001115
0.025131
0.079527
-0.172997
-0.058778
0.177907
0.384439
0.002784
0.296770
-1.575033
-1.276530
-0.454288
-0.136609
1.321227
1.624775
-1.509810
-1.314872
-0.403101
-0.302324
0.472441
0.487655
0.940033
0.837912
-2.035153
-2.235567
0.985019
0.706921
0.418591
0.095436
-0.648426
-0.961613
0.267757
-0.002789
-0.311955
-0.520345
0.774484
0.645770
-0.067209
-0.107940
0.006062
0.004690
-0.017073
0.035196
0.080957
0.196794
-0.406177
-0.187515
0.616354
0.923848
0.417190
0.747782
0.739735
1.120989
-1.386848
-1.012727
0.640146
0.919825
0.220183
0.436851
-0.062640
0.056512
-0.638099
-0.638844
2.120968
2.044602
-0.884320
-1.049563
0.447406
0.215480
0.350328
0.111009
0.375190
0.157851
0.215859
0.033436
-0.281619
-0.389764
0.041380
0.007023
0.016295
0.003907
-0.014750
0.031005
-0.035353
0.071929
-0.060801
0.134082
-0.638559
-0.362162
-1.272875
-0.941438
-0.328867
0.043204
-0.330702
0.044581
0.125900
0.467228
-1.152911
-0.842333
-0.258098
-0.039396
-0.198700
-0.096834
-1.587974
-1.551118
0.302430
0.258656
-0.224927
-0.341850
-0.237398
-0.383370
-0.169207
-0.310294
0.003015
-0.123053
0.175840
0.103958
0.043217
0.011835
-0.003307
-0.004034
0.052817
0.077445
-0.231620
-0.157911
0.390912
0.535300
-0.166826
0.044867
1.321738
1.597286
-0.545584
-0.227541
0.505398
0.843694
-0.800601
-0.489493
0.744893
1.067482
-0.026212
0.249312
0.290588
0.468818
0.753101
0.888711
0.158288
0.218405
-0.129843
-0.134871
0.556126
0.506888
-0.045476
-0.105005
0.239569
0.183964
-0.090927
-0.138930
0.017677
0.000035
0.001440
0.001851
-0.008634
0.000892
0.035881
0.092835
-0.153307
-0.067359
-0.073765
0.054924
-0.748542
-0.568953
0.001104
0.235703
-0.362071
-0.094839
0.205432
0.423663
-0.636762
-0.369014
-0.128606
0.105472
-0.500147
-0.306906
-0.336155
-0.164256
-0.431815
-0.336862
0.165445
0.246560
-0.477472
-0.454091
0.132585
0.127483
-0.204456
-0.209837
0.095900
0.087661
-0.006175
-0.011226
0.000428
-0.001493
0.003684
0.005701
-0.014594
0.003831
0.042337
0.060173
-0.004531
0.036923
0.190211
0.232327
-0.018006
0.084106
0.052603
0.144861
-0.049334
0.046372
0.108648
0.224415
0.037307
0.125730
0.090187
0.204896
0.081098
0.147689
0.080256
0.143864
-0.031820
0.017977
0.106963
0.129985
-0.030456
-0.020777
0.056881
0.061932
-0.026683
-0.026255
0.003535
0.003535
-0.000000
