# vtk DataFile Version 2.0
SquarePlate_mix
ASCII
DATASET POLYDATA
POINTS 1681 float
0.000000 0.000000 0.000000
1.000000 0.000000 0.000000
1.000000 1.000000 0.000000
0.000000 1.000000 0.000000
0.025000 0.000000 0.000000
0.050000 0.000000 0.000000
0.075000 0.000000 0.000000
0.100000 0.000000 0.000000
0.125000 0.000000 0.000000
0.150000 0.000000 0.000000
0.175000 0.000000 0.000000
0.200000 0.000000 0.000000
0.225000 0.000000 0.000000
0.250000 0.000000 0.000000
0.275000 0.000000 0.000000
0.300000 0.000000 0.000000
0.325000 0.000000 0.000000
0.350000 0.000000 0.000000
0.375000 0.000000 0.000000
0.400000 0.000000 0.000000
0.425000 0.000000 0.000000
0.450000 0.000000 0.000000
0.475000 0.000000 0.000000
0.500000 0.000000 0.000000
0.525000 0.000000 0.000000
0.550000 0.000000 0.000000
0.575000 0.000000 0.000000
0.600000 0.000000 0.000000
0.625000 0.000000 0.000000
0.650000 0.000000 0.000000
0.675000 0.000000 0.000000
0.700000 0.000000 0.000000
0.725000 0.000000 0.000000
0.750000 0.000000 0.000000
0.775000 0.000000 0.000000
0.800000 0.000000 0.000000
0.825000 0.000000 0.000000
0.850000 0.000000 0.000000
0.875000 0.000000 0.000000
0.900000 0.000000 0.000000
0.925000 0.000000 0.000000
0.950000 0.000000 0.000000
0.975000 0.000000 0.000000
1.000000 0.025000 0.000000
1.000000 0.050000 0.000000
1.000000 0.075000 0.000000
1.000000 0.100000 0.000000
1.000000 0.125000 0.000000
1.000000 0.150000 0.000000
1.000000 0.175000 0.000000
1.000000 0.200000 0.000000
1.000000 0.225000 0.000000
1.000000 0.250000 0.000000
1.000000 0.275000 0.000000
1.000000 0.300000 0.000000
1.000000 0.325000 0.000000
1.000000 0.350000 0.000000
1.000000 0.375000 0.000000
1.000000 0.400000 0.000000
1.000000 0.425000 0.000000
1.000000 0.450000 0.000000
1.000000 0.475000 0.000000
1.000000 0.500000 0.000000
1.000000 0.525000 0.000000
1.000000 0.550000 0.000000
1.000000 0.575000 0.000000
1.000000 0.600000 0.000000
1.000000 0.625000 0.000000
1.000000 0.650000 0.000000
1.000000 0.675000 0.000000
1.000000 0.700000 0.000000
1.000000 0.725000 0.000000
1.000000 0.750000 0.000000
1.000000 0.775000 0.000000
1.000000 0.800000 0.000000
1.000000 0.825000 0.000000
1.000000 0.850000 0.000000
1.000000 0.875000 0.000000
1.000000 0.900000 0.000000
1.000000 0.925000 0.000000
1.000000 0.950000 0.000000
1.000000 0.975000 0.000000
0.975000 1.000000 0.000000
0.950000 1.000000 0.000000
0.925000 1.000000 0.000000
0.900000 1.000000 0.000000
0.875000 1.000000 0.000000
0.850000 1.000000 0.000000
0.825000 1.000000 0.000000
0.800000 1.000000 0.000000
0.775000 1.000000 0.000000
0.750000 1.000000 0.000000
0.725000 1.000000 0.000000
0.700000 1.000000 0.000000
0.675000 1.000000 0.000000
0.650000 1.000000 0.000000
0.625000 1.000000 0.000000
0.600000 1.000000 0.000000
0.575000 1.000000 0.000000
0.550000 1.000000 0.000000
0.525000 1.000000 0.000000
0.500000 1.000000 0.000000
0.475000 1.000000 0.000000
0.450000 1.000000 0.000000
0.425000 1.000000 0.000000
0.400000 1.000000 0.000000
0.375000 1.000000 0.000000
0.350000 1.000000 0.000000
0.325000 1.000000 0.000000
0.300000 1.000000 0.000000
0.275000 1.000000 0.000000
0.250000 1.000000 0.000000
0.225000 1.000000 0.000000
0.200000 1.000000 0.000000
0.175000 1.000000 0.000000
0.150000 1.000000 0.000000
0.125000 1.000000 0.000000
0.100000 1.000000 0.000000
0.075000 1.000000 0.000000
0.050000 1.000000 0.000000
0.025000 1.000000 0.000000
0.000000 0.975000 0.000000
0.000000 0.950000 0.000000
0.000000 0.925000 0.000000
0.000000 0.900000 0.000000
0.000000 0.875000 0.000000
0.000000 0.850000 0.000000
0.000000 0.825000 0.000000
0.000000 0.800000 0.000000
0.000000 0.775000 0.000000
0.000000 0.750000 0.000000
0.000000 0.725000 0.000000
0.000000 0.700000 0.000000
0.000000 0.675000 0.000000
0.000000 0.650000 0.000000
0.000000 0.625000 0.000000
0.000000 0.600000 0.000000
0.000000 0.575000 0.000000
0.000000 0.550000 0.000000
0.000000 0.525000 0.000000
0.000000 0.500000 0.000000
0.000000 0.475000 0.000000
0.000000 0.450000 0.000000
0.000000 0.425000 0.000000
0.000000 0.400000 0.000000
0.000000 0.375000 0.000000
0.000000 0.350000 0.000000
0.000000 0.325000 0.000000
0.000000 0.300000 0.000000
0.000000 0.275000 0.000000
0.000000 0.250000 0.000000
0.000000 0.225000 0.000000
0.000000 0.200000 0.000000
0.000000 0.175000 0.000000
0.000000 0.150000 0.000000
0.000000 0.125000 0.000000
0.000000 0.100000 0.000000
0.000000 0.075000 0.000000
0.000000 0.050000 0.000000
0.000000 0.025000 0.000000
0.025000 0.025000 0.000000
0.025000 0.050000 0.000000
0.025000 0.075000 0.000000
0.025000 0.100000 0.000000
0.025000 0.125000 0.000000
0.025000 0.150000 0.000000
0.025000 0.175000 0.000000
0.025000 0.200000 0.000000
0.025000 0.225000 0.000000
0.025000 0.250000 0.000000
0.025000 0.275000 0.000000
0.025000 0.300000 0.000000
0.025000 0.325000 0.000000
0.025000 0.350000 0.000000
0.025000 0.375000 0.000000
0.025000 0.400000 0.000000
0.025000 0.425000 0.000000
0.025000 0.450000 0.000000
0.025000 0.475000 0.000000
0.025000 0.500000 0.000000
0.025000 0.525000 0.000000
0.025000 0.550000 0.000000
0.025000 0.575000 0.000000
0.025000 0.600000 0.000000
0.025000 0.625000 0.000000
0.025000 0.650000 0.000000
0.025000 0.675000 0.000000
0.025000 0.700000 0.000000
0.025000 0.725000 0.000000
0.025000 0.750000 0.000000
0.025000 0.775000 0.000000
0.025000 0.800000 0.000000
0.025000 0.825000 0.000000
0.025000 0.850000 0.000000
0.025000 0.875000 0.000000
0.025000 0.900000 0.000000
0.025000 0.925000 0.000000
0.025000 0.950000 0.000000
0.025000 0.975000 0.000000
0.050000 0.025000 0.000000
0.050000 0.050000 0.000000
0.050000 0.075000 0.000000
0.050000 0.100000 0.000000
0.050000 0.125000 0.000000
0.050000 0.150000 0.000000
0.050000 0.175000 0.000000
0.050000 0.200000 0.000000
0.050000 0.225000 0.000000
0.050000 0.250000 0.000000
0.050000 0.275000 0.000000
0.050000 0.300000 0.000000
0.050000 0.325000 0.000000
0.050000 0.350000 0.000000
0.050000 0.375000 0.000000
0.050000 0.400000 0.000000
0.050000 0.425000 0.000000
0.050000 0.450000 0.000000
0.050000 0.475000 0.000000
0.050000 0.500000 0.000000
0.050000 0.525000 0.000000
0.050000 0.550000 0.000000
0.050000 0.575000 0.000000
0.050000 0.600000 0.000000
0.050000 0.625000 0.000000
0.050000 0.650000 0.000000
0.050000 0.675000 0.000000
0.050000 0.700000 0.000000
0.050000 0.725000 0.000000
0.050000 0.750000 0.000000
0.050000 0.775000 0.000000
0.050000 0.800000 0.000000
0.050000 0.825000 0.000000
0.050000 0.850000 0.000000
0.050000 0.875000 0.000000
0.050000 0.900000 0.000000
0.050000 0.925000 0.000000
0.050000 0.950000 0.000000
0.050000 0.975000 0.000000
0.075000 0.025000 0.000000
0.075000 0.050000 0.000000
0.075000 0.075000 0.000000
0.075000 0.100000 0.000000
0.075000 0.125000 0.000000
0.075000 0.150000 0.000000
0.075000 0.175000 0.000000
0.075000 0.200000 0.000000
0.075000 0.225000 0.000000
0.075000 0.250000 0.000000
0.075000 0.275000 0.000000
0.075000 0.300000 0.000000
0.075000 0.325000 0.000000
0.075000 0.350000 0.000000
0.075000 0.375000 0.000000
0.075000 0.400000 0.000000
0.075000 0.425000 0.000000
0.075000 0.450000 0.000000
0.075000 0.475000 0.000000
0.075000 0.500000 0.000000
0.075000 0.525000 0.000000
0.075000 0.550000 0.000000
0.075000 0.575000 0.000000
0.075000 0.600000 0.000000
0.075000 0.625000 0.000000
0.075000 0.650000 0.000000
0.075000 0.675000 0.000000
0.075000 0.700000 0.000000
0.075000 0.725000 0.000000
0.075000 0.750000 0.000000
0.075000 0.775000 0.000000
0.075000 0.800000 0.000000
0.075000 0.825000 0.000000
0.075000 0.850000 0.000000
0.075000 0.875000 0.000000
0.075000 0.900000 0.000000
0.075000 0.925000 0.000000
0.075000 0.950000 0.000000
0.075000 0.975000 0.000000
0.100000 0.025000 0.000000
0.100000 0.050000 0.000000
0.100000 0.075000 0.000000
0.100000 0.100000 0.000000
0.100000 0.125000 0.000000
0.100000 0.150000 0.000000
0.100000 0.175000 0.000000
0.100000 0.200000 0.000000
0.100000 0.225000 0.000000
0.100000 0.250000 0.000000
0.100000 0.275000 0.000000
0.100000 0.300000 0.000000
0.100000 0.325000 0.000000
0.100000 0.350000 0.000000
0.100000 0.375000 0.000000
0.100000 0.400000 0.000000
0.100000 0.425000 0.000000
0.100000 0.450000 0.000000
0.100000 0.475000 0.000000
0.100000 0.500000 0.000000
0.100000 0.525000 0.000000
0.100000 0.550000 0.000000
0.100000 0.575000 0.000000
0.100000 0.600000 0.000000
0.100000 0.625000 0.000000
0.100000 0.650000 0.000000
0.100000 0.675000 0.000000
0.100000 0.700000 0.000000
0.100000 0.725000 0.000000
0.100000 0.750000 0.000000
0.100000 0.775000 0.000000
0.100000 0.800000 0.000000
0.100000 0.825000 0.000000
0.100000 0.850000 0.000000
0.100000 0.875000 0.000000
0.100000 0.900000 0.000000
0.100000 0.925000 0.000000
0.100000 0.950000 0.000000
0.100000 0.975000 0.000000
0.125000 0.025000 0.000000
0.125000 0.050000 0.000000
0.125000 0.075000 0.000000
0.125000 0.100000 0.000000
0.125000 0.125000 0.000000
0.125000 0.150000 0.000000
0.125000 0.175000 0.000000
0.125000 0.200000 0.000000
0.125000 0.225000 0.000000
0.125000 0.250000 0.000000
0.125000 0.275000 0.000000
0.125000 0.300000 0.000000
0.125000 0.325000 0.000000
0.125000 0.350000 0.000000
0.125000 0.375000 0.000000
0.125000 0.400000 0.000000
0.125000 0.425000 0.000000
0.125000 0.450000 0.000000
0.125000 0.475000 0.000000
0.125000 0.500000 0.000000
0.125000 0.525000 0.000000
0.125000 0.550000 0.000000
0.125000 0.575000 0.000000
0.125000 0.600000 0.000000
0.125000 0.625000 0.000000
0.125000 0.650000 0.000000
0.125000 0.675000 0.000000
0.125000 0.700000 0.000000
0.125000 0.725000 0.000000
0.125000 0.750000 0.000000
0.125000 0.775000 0.000000
0.125000 0.800000 0.000000
0.125000 0.825000 0.000000
0.125000 0.850000 0.000000
0.125000 0.875000 0.000000
0.125000 0.900000 0.000000
0.125000 0.925000 0.000000
0.125000 0.950000 0.000000
0.125000 0.975000 0.000000
0.150000 0.025000 0.000000
0.150000 0.050000 0.000000
0.150000 0.075000 0.000000
0.150000 0.100000 0.000000
0.150000 0.125000 0.000000
0.150000 0.150000 0.000000
0.150000 0.175000 0.000000
0.150000 0.200000 0.000000
0.150000 0.225000 0.000000
0.150000 0.250000 0.000000
0.150000 0.275000 0.000000
0.150000 0.300000 0.000000
[...]
CELL_DATA 3200
SCALARS PRESSURE float 1
LOOKUP_TABLE default
0.000000
-0.002079
-0.002079
-0.000702
0.000081
-0.001396
-0.000014
-0.000165
-0.000772
-0.002106
-0.001370
0.000022
0.001780
-0.010859
-0.004228
-0.003248
0.002653
-0.012901
-0.006308
-0.001902
0.002848
-0.003024
-0.004078
-0.002280
0.004628
-0.006206
-0.006160
0.007983
0.008443
0.007821
-0.006434
0.009757
0.007457
0.011188
-0.004649
0.010351
0.005792
0.005488
-0.005132
0.031803
0.003417
0.036464
0.000987
0.025440
-0.002133
0.037899
0.007995
0.021304
-0.004011
0.023002
0.004394
0.015743
-0.004457
0.037066
0.007538
0.006589
-0.005272
0.018670
0.009408
0.006561
-0.006482
0.019999
0.009134
0.007000
-0.006805
0.029929
0.007298
0.008637
-0.004191
0.009109
0.002786
-0.002146
-0.002897
-0.002327
0.001263
-0.005188
-0.001357
0.004467
-0.001481
0.000894
-0.000783
0.006312
0.004930
0.001363
0.003739
-0.009503
-0.004554
-0.001842
0.006439
-0.008924
-0.001104
-0.007995
0.002756
0.015339
0.021282
-0.021220
-0.000796
0.019971
0.038386
-0.038600
-0.021942
0.023300
0.042271
-0.025862
-0.027940
0.060922
0.055966
-0.063981
-0.074669
0.083802
0.060573
-0.029182
-0.075662
0.089621
0.047195
-0.005883
-0.037235
0.052767
0.021720
-0.053339
-0.068520
0.029266
-0.013262
0.020318
-0.028775
0.002965
-0.060139
0.078584
0.008008
0.041549
-0.025540
0.038741
-0.031981
0.023861
-0.033699
0.091558
0.018507
0.011358
-0.057207
0.086376
0.030872
-0.000345
-0.057855
0.049896
0.016185
-0.028017
-0.070171
0.054234
0.024798
0.007656
-0.031452
0.032055
0.029766
-0.004959
-0.005316
-0.007066
0.004578
-0.011763
-0.001267
-0.004605
-0.001769
-0.007561
-0.013245
0.009416
0.000324
0.020277
0.012181
0.002808
-0.002300
0.002012
0.006302
0.018753
0.015160
-0.044485
-0.041473
0.066237
0.054254
-0.052996
-0.076205
0.128948
0.101285
-0.073530
-0.097425
0.102545
0.073396
-0.111299
-0.135711
0.208190
0.179279
-0.221508
-0.262162
0.271396
0.213156
-0.192651
-0.276713
0.243122
0.141493
-0.033227
-0.148814
0.231708
0.122893
0.028559
-0.091755
0.081831
-0.000700
0.121308
0.012718
-0.055019
-0.142307
0.109126
-0.004061
0.063679
-0.052645
0.100169
-0.024662
-0.015121
-0.111919
0.121228
0.024802
-0.041869
-0.139656
0.119805
0.052624
0.009634
-0.080821
0.094548
0.062474
-0.022677
-0.092429
0.044719
0.026937
0.000882
-0.060569
0.058368
0.031221
0.023388
0.002763
0.005496
0.002927
0.004269
-0.000947
0.008280
0.001925
0.011924
0.002185
-0.035826
-0.051242
0.062988
0.052668
-0.049061
-0.054478
0.026045
0.041739
0.006621
0.029218
-0.088455
-0.041245
0.026872
0.057632
-0.165175
-0.139874
0.113068
0.128418
-0.155429
-0.149365
0.156933
0.159610
-0.252053
-0.259265
0.298349
0.293555
-0.336822
-0.379442
0.296709
0.284535
-0.229185
-0.289438
0.046805
0.011149
-0.059431
-0.149046
-0.051642
-0.120200
0.131617
0.017430
-0.152312
-0.243906
0.283578
0.187703
-0.184706
-0.252664
0.096567
0.024289
-0.062769
-0.127181
0.094587
-0.019730
0.005637
-0.093950
0.129203
0.025039
-0.024252
-0.132877
0.089296
0.006374
-0.020970
-0.109061
0.088505
0.045223
-0.008270
-0.066118
0.039337
0.016175
-0.043278
-0.083181
0.032265
0.008402
-0.012048
-0.005100
-0.009077
-0.001805
-0.005773
-0.007184
-0.017354
-0.032389
0.081058
0.068234
-0.098064
-0.125546
0.149605
0.132874
-0.095154
-0.108415
0.060095
0.082784
-0.020561
0.000129
0.001181
0.031541
0.068685
0.091138
-0.087773
-0.084191
0.141997
0.145472
-0.122999
-0.110934
0.176300
0.188621
-0.185516
-0.189762
0.247420
0.254846
-0.195092
-0.196592
0.148889
0.138129
0.070988
0.070173
-0.076868
-0.112540
0.266346
0.240764
-0.255086
-0.300772
0.392914
0.373930
-0.404965
-0.493193
0.549948
0.491969
-0.246740
-0.326253
0.266487
0.215374
-0.115431
-0.164943
0.094023
0.005564
-0.018026
-0.111624
0.148569
0.017503
0.009969
-0.077680
0.133062
0.024991
-0.038566
-0.073868
0.071381
0.036534
-0.043840
-0.044042
0.039568
0.036865
0.005868
-0.011451
0.022777
0.014800
-0.000373
0.003774
0.003279
0.001148
0.026148
0.029773
-0.102249
-0.094234
0.128673
0.136192
-0.195775
-0.199366
0.187181
0.175470
-0.123038
-0.112779
0.091390
0.107002
-0.095753
-0.046506
-0.037273
-0.002655
-0.019817
0.016157
-0.082156
-0.082768
0.080105
0.054251
-0.077381
-0.106194
0.090895
0.039031
-0.052444
-0.136328
0.147256
0.051161
0.004396
-0.069644
-0.068076
-0.178424
0.220869
0.142382
-0.228900
-0.380892
0.440521
0.304381
-0.345305
-0.522517
0.638440
0.480576
-0.591858
-0.795711
0.615714
0.461606
-0.300156
-0.466140
0.326352
0.217529
-0.107487
-0.207065
0.196688
0.078067
-0.172061
-0.257414
0.248715
0.084412
-0.067816
-0.202011
0.235170
0.086106
-0.005742
-0.139984
0.201979
0.136291
-0.062368
-0.114537
0.031660
0.025429
-0.007471
-0.018244
0.002168
-0.003420
0.002213
-0.007475
-0.026078
-0.038585
0.136968
0.134288
-0.184737
-0.175525
0.228743
0.239884
-0.260113
-0.239601
0.179053
0.177092
-0.163242
-0.132120
0.120429
0.124318
-0.004533
0.018342
0.025935
0.073360
-0.054486
0.006582
-0.041222
-0.000303
-0.008837
0.022170
-0.016909
-0.009832
-0.052794
-0.045993
0.034527
-0.021744
-0.037501
-0.083513
0.244492
0.173139
-0.219588
-0.282239
0.377769
0.316280
-0.436439
-0.452972
0.443690
0.384144
-0.623857
-0.659106
0.817267
0.751636
-0.664646
-0.774528
0.485447
0.434484
-0.264326
-0.366555
0.184120
0.140734
-0.067059
-0.150076
0.175431
0.109879
-0.135412
-0.201175
0.036940
-0.044631
0.028907
-0.078043
0.027988
-0.063919
-0.114756
-0.201722
0.180048
0.127441
-0.025290
-0.061062
0.030955
0.013309
0.005107
0.000319
0.001854
-0.002218
0.038059
0.042305
-0.160653
-0.155484
0.241860
0.249630
-0.327940
-0.283979
0.282896
0.334151
-0.268213
-0.211977
0.179453
0.246529
-0.293577
-0.198363
0.002048
0.070182
-0.097149
-0.055710
0.053728
0.113235
-0.095487
-0.057030
0.088252
0.103087
-0.066978
-0.070917
0.140666
0.118535
-0.094845
-0.123396
0.103439
0.057961
-0.204229
-0.289011
0.319377
0.231775
-0.297085
-0.434016
0.521990
0.361254
-0.246268
-0.396863
0.727458
0.569631
-0.699710
-0.865729
0.807445
0.679029
-0.369910
-0.559921
0.425701
0.302142
-0.051028
-0.173549
0.050991
-0.027004
0.021743
-0.033438
0.060665
0.008546
0.175160
0.156401
-0.271343
-0.306760
0.228565
0.187578
0.097474
0.035177
-0.104454
-0.142408
0.073586
0.034079
0.001940
-0.017273
0.005344
-0.005600
-0.000102
-0.008904
-0.018120
-0.011714
0.116254
0.118717
-0.248064
-0.223982
0.333024
0.364561
-0.370733
-0.315941
0.236092
0.266872
-0.196909
-0.187344
0.315369
0.352782
-0.159221
-0.077476
0.040593
0.142214
-0.165164
-0.073643
0.028358
0.152946
-0.276999
-0.199452
0.057850
0.123796
-0.209653
-0.170366
0.069770
0.082726
-0.051967
-0.059992
0.149022
0.128375
-0.233545
-0.271688
0.291419
0.237692
-0.335037
-0.415132
0.282901
0.141488
-0.451260
-0.563849
0.721677
0.550874
-0.602407
-0.743661
0.507569
0.337821
-0.249453
-0.409229
0.243746
0.082527
0.085920
-0.033124
0.009887
-0.117032
0.157413
0.035787
-0.193631
-0.305763
0.561024
0.489357
-0.404579
-0.459406
0.025895
0.007078
0.123657
0.075336
-0.055967
-0.071846
0.045888
0.009952
0.008935
0.001133
0.002981
-0.003289
0.030605
0.015189
-0.077950
-0.053744
0.177846
0.201424
-0.321875
-0.281230
0.320192
0.407623
-0.353760
-0.265678
0.099403
0.173838
-0.313824
-0.264392
0.104473
0.178040
-0.106881
-0.045907
0.060361
0.149887
-0.094984
-0.009727
0.188570
0.309011
-0.263458
-0.131305
0.184956
0.253330
-0.179896
-0.123973
0.049940
0.041135
-0.052778
-0.100194
0.241603
0.207301
-0.273263
-0.309570
0.348372
0.267305
-0.152163
-0.223413
0.417132
0.312856
-0.526092
-0.590645
0.569017
0.485735
-0.331233
-0.444555
0.323936
0.189385
-0.092870
-0.221759
0.036295
-0.070176
0.138050
0.060737
-0.163650
-0.207885
0.329783
0.264144
-0.639779
-0.705633
0.669564
0.626160
-0.108309
-0.128091
-0.041407
-0.032384
-0.003603
0.004970
-0.020544
-0.021742
-0.001349
-0.003945
-0.003689
-0.012216
-0.023857
-0.016825
0.056308
0.062838
-0.153624
-0.124675
0.213603
0.250219
-0.277603
-0.236844
0.227679
0.299074
-0.123000
-0.048302
0.164294
0.235542
-0.135108
-0.048523
-0.047680
0.080395
-0.126190
-0.020073
-0.055209
0.033438
-0.194304
-0.121956
0.118222
0.242335
-0.310666
-0.185821
0.030793
0.160345
-0.157488
-0.081982
-0.033793
-0.015599
-0.154187
-0.181127
0.266038
0.223246
-0.262041
-0.314428
0.132656
0.040785
-0.128707
-0.266090
0.464106
0.310225
-0.231886
-0.383281
0.350543
0.213020
-0.082670
-0.219284
0.164406
0.029100
0.131423
-0.020446
-0.069255
-0.184127
0.335067
0.238716
-0.365200
-0.444169
0.825116
0.742910
-0.635521
-0.705379
0.190686
0.123589
0.060610
0.029038
0.022259
0.013264
0.006541
0.013201
-0.000892
-0.000058
0.005976
0.015675
0.028927
0.041380
-0.103671
-0.045485
0.093527
0.148941
-0.268371
-0.181675
0.203781
0.263399
-0.303470
-0.208147
0.009788
0.097992
-0.188438
-0.117439
0.057935
0.107955
0.006827
0.073012
0.038795
0.124983
-0.091889
0.023648
0.122462
0.195514
-0.204526
-0.107922
0.210447
0.326182
-0.147765
-0.047087
0.082411
0.204538
-0.172837
-0.055590
0.098868
0.148104
-0.324442
-0.318165
0.342734
0.297413
-0.091292
-0.147597
0.085399
0.021404
-0.224575
-0.318951
0.183691
0.068062
-0.101795
-0.238252
0.092821
-0.043911
0.033089
-0.106999
0.023344
-0.125788
0.295457
0.159243
-0.360893
-0.455058
0.581996
0.499849
-0.861560
-0.921328
0.741231
0.682383
-0.144077
-0.160431
-0.004801
-0.035097
-0.004712
-0.008060
-0.006096
-0.002619
-0.000454
-0.002736
-0.005987
-0.017596
-0.017834
-0.014593
0.147234
0.124982
-0.130140
-0.087871
0.223028
0.274262
-0.300597
-0.228298
0.303243
0.366849
-0.134887
-0.018914
0.036978
0.166714
-0.227868
-0.057404
-0.059195
0.059437
-0.234827
-0.092342
0.056446
0.166830
-0.328362
-0.230672
0.169581
0.309247
-0.357477
-0.280787
0.059545
0.142343
-0.155867
-0.101809
0.194450
0.219592
-0.219145
-0.142233
0.303107
0.363540
-0.455813
-0.408000
0.160900
0.150558
-0.039732
-0.075681
0.201705
0.141296
-0.019139
-0.086345
0.142233
0.058636
0.050306
-0.016744
0.021303
-0.045460
-0.055153
-0.145029
-0.101302
-0.173373
0.458359
0.361004
-0.553474
-0.610101
0.964460
0.878922
-0.622084
-0.700906
0.160109
0.084531
0.058759
0.011950
0.038952
0.010367
0.012017
-0.000469
0.003890
0.011456
-0.007007
0.031244
-0.057567
-0.029807
-0.148620
-0.110888
0.109281
0.118144
-0.220521
-0.174810
0.215600
0.260927
-0.407775
-0.359112
0.134141
0.179441
-0.062717
-0.001966
0.103100
0.179830
-0.102322
0.026245
0.131612
0.233418
-0.249284
-0.097221
0.267218
0.392750
-0.376219
-0.254884
0.355512
0.460302
-0.300182
-0.165063
0.121336
0.202010
-0.374854
-0.288919
0.273456
0.274361
-0.428153
-0.396326
0.505599
0.505296
-0.289770
-0.304962
0.106854
0.080840
-0.167972
-0.201018
0.019887
-0.042725
-0.043559
-0.112184
-0.024464
-0.108714
0.080599
0.001883
0.197615
0.152457
-0.041362
-0.094709
-0.258240
-0.290436
0.451079
0.427050
-0.721732
-0.745852
0.495546
0.472187
-0.045804
-0.059237
-0.067257
-0.074804
-0.009655
-0.013328
-0.015695
-0.007834
-0.007512
0.002701
0.002813
0.029454
0.016822
0.076513
0.057579
0.129227
-0.182137
-0.103204
0.156093
0.238127
-0.267787
-0.198787
0.376132
0.503552
-0.379068
-0.220964
-0.051065
0.113369
-0.281507
-0.115699
0.047447
0.149436
-0.273629
-0.173921
0.202116
0.324793
-0.466334
-0.336398
0.294398
0.430231
-0.606827
-0.465998
0.336792
0.434893
-0.340093
-0.219668
0.353895
0.448949
-0.440801
-0.328753
0.419375
0.528342
-0.700781
-0.593427
0.329443
0.401263
-0.163051
-0.140987
0.148111
0.137926
0.105904
0.044339
0.043532
-0.026536
0.173008
0.084603
0.007966
-0.098853
-0.149775
-0.232784
0.244636
0.189113
0.154060
0.140911
-0.304216
-0.297318
0.483822
0.509079
-0.348308
-0.359817
0.013317
0.007718
0.066113
0.057358
0.016759
0.025385
-0.003437
0.018525
-0.002922
0.007893
-0.012183
-0.000326
-0.052871
-0.043288
-0.024463
0.012669
0.022695
0.093420
-0.119962
-0.090115
0.093874
0.123229
-0.325756
-0.359997
0.399386
0.430568
0.039835
0.079465
0.096587
0.231188
-0.116553
-0.020004
0.090400
0.238951
-0.292843
-0.186725
0.325946
0.437538
-0.353938
-0.259197
0.504104
0.605229
-0.582055
-0.463001
0.336851
0.407180
-0.510521
-0.453466
0.470463
0.468879
-0.522608
-0.553867
0.881529
0.870166
-0.533205
-0.556345
0.233660
0.261286
-0.233515
-0.236872
-0.136978
-0.154343
0.066541
0.010659
-0.230828
-0.295424
0.142037
0.076548
0.233727
0.132095
-0.202651
-0.282036
-0.024630
-0.130301
0.317082
0.291786
-0.330646
-0.328575
0.202033
0.209574
0.017655
0.013107
-0.048188
-0.054543
0.013530
0.005096
-0.022028
-0.011780
-0.007267
0.005202
0.007043
0.031978
0.015817
0.046543
-0.015759
0.044508
-0.031331
0.032605
-0.068571
0.061999
-0.058433
0.067012
0.080996
0.236817
-0.424553
-0.339853
-0.150870
-0.069612
-0.063032
-0.020417
-0.044857
0.021782
-0.056680
-0.007223
0.103974
0.204576
-0.317899
-0.220188
0.081901
0.188690
-0.473858
-0.376288
0.468332
0.578208
-0.484250
-0.353634
0.404863
0.557660
-0.628656
-0.479927
0.432352
0.578048
-1.122754
-1.010953
0.721584
0.812394
-0.473549
-0.422653
0.344771
0.416623
-0.002032
0.048210
-0.082835
-0.043638
0.289822
0.302199
-0.194202
-0.196934
-0.160892
-0.163352
0.199257
0.168341
0.154596
0.097297
-0.239679
-0.278290
0.247616
0.240647
-0.151062
-0.151596
0.055130
0.059365
-0.061427
-0.046664
0.033267
0.043883
0.007315
0.011569
-0.002616
-0.004945
-0.010253
-0.015407
0.000163
0.008732
-0.051520
-0.023956
0.043468
0.043624
0.034449
0.033130
0.026463
0.070536
-0.201031
-0.094817
0.343507
0.473926
-0.089306
0.064904
-0.074847
0.084319
-0.054035
0.081471
-0.172624
-0.023557
-0.105853
-0.002666
0.059499
0.180221
-0.016675
0.099861
0.169322
0.289803
-0.527707
-0.424684
0.339695
0.426631
-0.398448
-0.338644
0.435000
0.497415
-0.473452
-0.409604
1.067162
1.145565
-1.005506
-0.936031
0.556564
0.620212
-0.512989
-0.521253
0.137159
0.163061
-0.079170
-0.077568
-0.165640
-0.187462
0.118357
0.101575
0.202011
0.168106
-0.214691
-0.224975
-0.144392
-0.193227
0.301114
0.260159
-0.118854
-0.109770
0.012766
0.028371
-0.081337
-0.057799
0.113290
0.099768
-0.071395
-0.060742
0.009016
-0.006179
0.008334
-0.005718
0.023651
0.018246
0.004145
0.031850
-0.003537
0.054394
-0.084362
-0.020423
-0.126980
-0.051001
0.011647
0.066846
0.065804
0.119046
-0.370731
-0.289827
-0.021136
0.055475
0.053433
0.129429
-0.119838
-0.025974
0.162524
0.249704
-0.118428
-0.039274
0.023344
0.112854
-0.263980
-0.196729
-0.016496
0.089396
0.236469
0.377486
-0.370574
-0.210813
0.135646
0.294150
-0.396994
-0.259410
0.195639
0.302103
-0.846423
-0.767773
0.727313
0.848832
-0.631146
-0.544567
0.479033
0.535709
-0.227952
-0.176133
0.150647
0.185417
-0.039204
0.009476
0.048610
0.074116
-0.296650
-0.275413
0.256712
0.281582
0.112237
0.120310
-0.322340
-0.321749
0.130955
0.122291
0.028024
0.053519
0.028591
0.064357
-0.141997
-0.082760
-0.000418
0.044092
-0.006753
-0.005052
0.000764
-0.005373
-0.018126
-0.045255
0.048251
0.046555
-0.044843
-0.070210
0.149267
0.180939
-0.008455
-0.002023
-0.018165
0.031874
-0.073887
-0.024133
0.265559
0.361447
-0.073298
0.018177
-0.188283
-0.069692
0.027694
0.122656
-0.278800
-0.179860
0.084707
0.180063
-0.222716
-0.156647
0.330160
0.391794
-0.252808
-0.219678
-0.035226
-0.033393
0.196757
0.253407
-0.170664
-0.116290
0.178416
0.280278
-0.120864
-0.046376
0.450893
0.568381
-0.614433
-0.524463
0.379114
0.529742
-0.511686
-0.414095
0.042779
0.143794
-0.175517
-0.116174
0.041692
0.084120
-0.209885
-0.173748
0.334810
0.363069
-0.335918
-0.307042
-0.082400
-0.050347
0.306908
0.344724
-0.210625
-0.204651
0.044424
0.072302
-0.113328
-0.133370
0.217115
0.225665
-0.063743
-0.057046
-0.002926
0.006425
0.003247
0.001818
0.017104
0.024578
-0.071051
-0.071874
0.090287
0.121690
-0.238616
-0.244925
0.111094
0.158065
-0.127304
-0.116286
0.104737
0.120648
-0.298271
-0.294364
0.079927
0.117909
0.110113
0.149847
-0.072812
-0.002600
0.207250
0.279690
-0.210482
-0.124391
0.182506
0.275176
-0.565462
-0.460655
0.423983
0.503104
-0.336311
-0.211110
-0.070483
-0.003708
-0.024527
0.088153
-0.140151
-0.081080
-0.126563
-0.032239
-0.229463
-0.175267
0.220572
0.342942
-0.360000
-0.263766
0.355151
0.455516
-0.100076
0.059247
-0.010677
0.104468
-0.201014
-0.101416
0.295699
0.366358
-0.516435
-0.472789
0.488247
0.518274
-0.124144
-0.094467
-0.235528
-0.215454
0.215034
0.232771
-0.191444
-0.141986
0.156840
0.203722
-0.314280
-0.274065
0.087917
0.088507
-0.023476
-0.007593
-0.012132
-0.002372
-0.020342
-0.014999
0.083838
0.079451
-0.111619
-0.106422
0.244497
0.254974
-0.195764
-0.174027
0.178088
0.210891
-0.235902
-0.161266
0.359460
0.388321
-0.213129
-0.143149
-0.151055
-0.090449
-0.008333
0.039828
-0.223267
-0.199692
0.148425
0.205123
-0.265306
-0.200233
0.606871
0.668046
-0.689639
-0.584201
0.509487
0.569452
-0.302118
-0.166361
0.083154
0.185007
-0.134586
0.062237
0.147602
0.258730
-0.098929
0.067997
-0.144343
0.007868
0.074575
0.236244
-0.400753
-0.232576
-0.172911
-0.055611
0.020819
0.154274
0.048208
0.150012
-0.491298
-0.376419
0.547688
0.630173
-0.716005
-0.645001
0.244599
0.338017
-0.003246
0.046608
-0.172658
-0.135703
0.203183
0.223062
-0.235732
-0.174606
0.256831
0.295376
-0.106975
-0.071325
0.002815
0.024768
0.002060
0.008044
0.011878
0.009504
-0.092239
-0.095569
0.168467
0.152802
-0.268778
-0.274646
0.236859
0.235932
-0.210836
-0.230603
0.329651
0.290735
-0.487007
-0.491770
0.341312
0.345428
0.026712
0.064695
0.006994
0.055847
0.162777
0.204188
-0.178950
-0.148327
0.186349
0.221180
-0.591525
-0.539672
0.659641
0.695954
-0.750202
-0.674339
0.484447
0.471196
-0.264652
-0.245314
0.231157
0.237018
-0.366721
-0.325332
0.234083
0.252677
-0.112560
-0.086047
-0.021896
0.104475
0.219328
0.314471
0.087221
0.271899
-0.298308
-0.131001
-0.133681
0.023318
0.393369
0.520894
-0.678454
-0.587641
0.694862
0.781156
-0.416969
-0.371856
0.041023
0.096165
0.098124
0.102116
-0.281175
-0.279653
0.343665
0.328284
-0.278395
-0.295531
0.101929
0.113071
-0.015051
-0.025285
-0.000298
-0.005109
-0.001857
0.003771
0.070417
0.077344
-0.157941
-0.192051
0.302143
0.298801
-0.277270
-0.285020
0.229249
0.201592
-0.243427
-0.265565
0.484755
0.434746
-0.298245
-0.333929
-0.009979
-0.025028
-0.039626
-0.043217
-0.160779
-0.182483
0.193782
0.212111
-0.149385
-0.141681
0.469559
0.506427
-0.592342
-0.524834
0.527088
0.671491
-0.611874
-0.476303
0.154727
0.302733
-0.242580
-0.108297
0.103117
0.283155
-0.307189
-0.205217
0.114073
0.259939
-0.154773
-0.067126
-0.286978
-0.153214
-0.168374
-0.068850
0.226301
0.348229
-0.114029
0.042680
-0.445369
-0.310553
0.500330
0.623804
-0.775766
-0.661528
0.343687
0.461412
-0.216398
-0.121862
-0.103845
-0.028561
0.234386
0.323380
-0.454256
-0.409670
0.292213
0.331678
-0.143154
-0.132844
-0.000274
0.019988
-0.000359
0.000626
0.001932
-0.001024
-0.050925
-0.048011
0.127693
0.108947
-0.252314
-0.277142
0.335575
0.302946
-0.269069
-0.280444
0.321868
0.262115
-0.431451
-0.495435
0.370820
0.299021
0.101138
0.009227
0.114148
0.077066
0.144967
0.108614
-0.112507
-0.164256
0.130619
0.061384
-0.272674
-0.352278
0.512418
0.423225
-0.374398
-0.422982
0.587964
0.569706
-0.182462
-0.172189
0.104876
0.170939
-0.069885
0.018534
0.012233
0.147014
-0.078331
-0.031668
-0.048704
0.101943
0.229047
0.337522
-0.079589
0.044530
-0.208295
-0.072366
-0.067165
0.048963
0.289410
0.427904
-0.602734
-0.494907
0.651760
0.739403
-0.502874
-0.435588
0.236727
0.287192
-0.047006
-0.007023
-0.190629
-0.162518
0.357311
0.399735
-0.298473
-0.300703
0.159680
0.159730
-0.023521
-0.019981
-0.006589
0.004246
-0.006382
0.007519
0.012399
0.020502
-0.076028
-0.080600
0.155001
0.121635
-0.131388
-0.189726
0.240588
0.174703
-0.227590
-0.275554
0.420796
0.353541
-0.278425
-0.355423
-0.022041
-0.109797
-0.041691
-0.105860
-0.051827
-0.089614
0.031715
0.044194
0.011794
0.020260
0.040107
0.069851
-0.322579
-0.317008
0.289728
0.283209
-0.477087
-0.471053
0.144464
0.123451
0.050345
0.044298
-0.135896
-0.028917
0.002469
0.112824
-0.106748
0.026919
-0.036188
0.092736
-0.326255
-0.190910
-0.013739
0.161964
-0.075399
0.075616
-0.015935
0.160106
-0.410482
-0.256451
0.386093
0.558284
-0.810530
-0.647281
0.466170
0.594535
-0.457801
-0.332391
0.057610
0.141128
0.041325
0.103168
-0.288303
-0.249480
0.186957
0.204961
-0.153273
-0.135628
0.037711
0.029675
0.004901
0.002198
0.001678
0.009331
-0.019193
-0.018821
0.046676
0.074627
-0.134769
-0.133008
0.048318
0.019485
-0.059061
-0.099814
0.148174
0.068577
-0.178781
-0.283905
0.222924
0.144187
0.243410