# vtk DataFile Version 2.0
SquarePlate_mix
ASCII
DATASET POLYDATA
POINTS 441 float
0.000000 0.000000 0.000000
1.000000 0.000000 0.000000
1.000000 1.000000 0.000000
0.000000 1.000000 0.000000
0.050000 0.000000 0.000000
0.100000 0.000000 0.000000
0.150000 0.000000 0.000000
0.200000 0.000000 0.000000
0.250000 0.000000 0.000000
0.300000 0.000000 0.000000
0.350000 0.000000 0.000000
0.400000 0.000000 0.000000
0.450000 0.000000 0.000000
0.500000 0.000000 0.000000
0.550000 0.000000 0.000000
0.600000 0.000000 0.000000
0.650000 0.000000 0.000000
0.700000 0.000000 0.000000
0.750000 0.000000 0.000000
0.800000 0.000000 0.000000
0.850000 0.000000 0.000000
0.900000 0.000000 0.000000
0.950000 0.000000 0.000000
1.000000 0.050000 0.000000
1.000000 0.100000 0.000000
1.000000 0.150000 0.000000
1.000000 0.200000 0.000000
1.000000 0.250000 0.000000
1.000000 0.300000 0.000000
1.000000 0.350000 0.000000
1.000000 0.400000 0.000000
1.000000 0.450000 0.000000
1.000000 0.500000 0.000000
1.000000 0.550000 0.000000
1.000000 0.600000 0.000000
1.000000 0.650000 0.000000
1.000000 0.700000 0.000000
1.000000 0.750000 0.000000
1.000000 0.800000 0.000000
1.000000 0.850000 0.000000
1.000000 0.900000 0.000000
1.000000 0.950000 0.000000
0.950000 1.000000 0.000000
0.900000 1.000000 0.000000
0.850000 1.000000 0.000000
0.800000 1.000000 0.000000
0.750000 1.000000 0.000000
0.700000 1.000000 0.000000
0.650000 1.000000 0.000000
0.600000 1.000000 0.000000
0.550000 1.000000 0.000000
0.500000 1.000000 0.000000
0.450000 1.000000 0.000000
0.400000 1.000000 0.000000
0.350000 1.000000 0.000000
0.300000 1.000000 0.000000
0.250000 1.000000 0.000000
0.200000 1.000000 0.000000
0.150000 1.000000 0.000000
0.100000 1.000000 0.000000
0.050000 1.000000 0.000000
0.000000 0.950000 0.000000
0.000000 0.900000 0.000000
0.000000 0.850000 0.000000
0.000000 0.800000 0.000000
0.000000 0.750000 0.000000
0.000000 0.700000 0.000000
0.000000 0.650000 0.000000
0.000000 0.600000 0.000000
0.000000 0.550000 0.000000
0.000000 0.500000 0.000000
0.000000 0.450000 0.000000
0.000000 0.400000 0.000000
0.000000 0.350000 0.000000
0.000000 0.300000 0.000000
0.000000 0.250000 0.000000
0.000000 0.200000 0.000000
0.000000 0.150000 0.000000
0.000000 0.100000 0.000000
0.000000 0.050000 0.000000
0.050000 0.050000 0.000000
0.050000 0.100000 0.000000
0.050000 0.150000 0.000000
0.050000 0.200000 0.000000
0.050000 0.250000 0.000000
0.050000 0.300000 0.000000
0.050000 0.350000 0.000000
0.050000 0.400000 0.000000
0.050000 0.450000 0.000000
0.050000 0.500000 0.000000
0.050000 0.550000 0.000000
0.050000 0.600000 0.000000
0.050000 0.650000 0.000000
0.050000 0.700000 0.000000
0.050000 0.750000 0.000000
0.050000 0.800000 0.000000
0.050000 0.850000 0.000000
0.050000 0.900000 0.000000
0.050000 0.950000 0.000000
0.100000 0.050000 0.000000
0.100000 0.100000 0.000000
0.100000 0.150000 0.000000
0.100000 0.200000 0.000000
0.100000 0.250000 0.000000
0.100000 0.300000 0.000000
0.100000 0.350000 0.000000
0.100000 0.400000 0.000000
0.100000 0.450000 0.000000
0.100000 0.500000 0.000000
0.100000 0.550000 0.000000
0.100000 0.600000 0.000000
0.100000 0.650000 0.000000
0.100000 0.700000 0.000000
0.100000 0.750000 0.000000
0.100000 0.800000 0.000000
0.100000 0.850000 0.000000
0.100000 0.900000 0.000000
0.100000 0.950000 0.000000
0.150000 0.050000 0.000000
0.150000 0.100000 0.000000
0.150000 0.150000 0.000000
0.150000 0.200000 0.000000
0.150000 0.250000 0.000000
0.150000 0.300000 0.000000
0.150000 0.350000 0.000000
0.150000 0.400000 0.000000
0.150000 0.450000 0.000000
0.150000 0.500000 0.000000
0.150000 0.550000 0.000000
0.150000 0.600000 0.000000
0.150000 0.650000 0.000000
0.150000 0.700000 0.000000
0.150000 0.750000 0.000000
0.150000 0.800000 0.000000
0.150000 0.850000 0.000000
0.150000 0.900000 0.000000
0.150000 0.950000 0.000000
0.200000 0.050000 0.000000
0.200000 0.100000 0.000000
0.200000 0.150000 0.000000
0.200000 0.200000 0.000000
0.200000 0.250000 0.000000
0.200000 0.300000 0.000000
0.200000 0.350000 0.000000
0.200000 0.400000 0.000000
0.200000 0.450000 0.000000
0.200000 0.500000 0.000000
0.200000 0.550000 0.000000
0.200000 0.600000 0.000000
0.200000 0.650000 0.000000
0.200000 0.700000 0.000000
0.200000 0.750000 0.000000
0.200000 0.800000 0.000000
0.200000 0.850000 0.000000
0.200000 0.900000 0.000000
0.200000 0.950000 0.000000
0.250000 0.050000 0.000000
0.250000 0.100000 0.000000
0.250000 0.150000 0.000000
0.250000 0.200000 0.000000
0.250000 0.250000 0.000000
0.250000 0.300000 0.000000
0.250000 0.350000 0.000000
0.250000 0.400000 0.000000
0.250000 0.450000 0.000000
0.250000 0.500000 0.000000
0.250000 0.550000 0.000000
0.250000 0.600000 0.000000
0.250000 0.650000 0.000000
0.250000 0.700000 0.000000
0.250000 0.750000 0.000000
0.250000 0.800000 0.000000
0.250000 0.850000 0.000000
0.250000 0.900000 0.000000
0.250000 0.950000 0.000000
0.300000 0.050000 0.000000
0.300000 0.100000 0.000000
0.300000 0.150000 0.000000
0.300000 0.200000 0.000000
0.300000 0.250000 0.000000
0.300000 0.300000 0.000000
0.300000 0.350000 0.000000
0.300000 0.400000 0.000000
0.300000 0.450000 0.000000
0.300000 0.500000 0.000000
0.300000 0.550000 0.000000
0.300000 0.600000 0.000000
0.300000 0.650000 0.000000
0.300000 0.700000 0.000000
0.300000 0.750000 0.000000
0.300000 0.800000 0.000000
0.300000 0.850000 0.000000
0.300000 0.900000 0.000000
0.300000 0.950000 0.000000
0.350000 0.050000 0.000000
0.350000 0.100000 0.000000
0.350000 0.150000 0.000000
0.350000 0.200000 0.000000
0.350000 0.250000 0.000000
0.350000 0.300000 0.000000
0.350000 0.350000 0.000000
0.350000 0.400000 0.000000
0.350000 0.450000 0.000000
0.350000 0.500000 0.000000
0.350000 0.550000 0.000000
0.350000 0.600000 0.000000
0.350000 0.650000 0.000000
0.350000 0.700000 0.000000
0.350000 0.750000 0.000000
0.350000 0.800000 0.000000
0.350000 0.850000 0.000000
0.350000 0.900000 0.000000
0.350000 0.950000 0.000000
0.400000 0.050000 0.000000
0.400000 0.100000 0.000000
0.400000 0.150000 0.000000
0.400000 0.200000 0.000000
0.400000 0.250000 0.000000
0.400000 0.300000 0.000000
0.400000 0.350000 0.000000
0.400000 0.400000 0.000000
0.400000 0.450000 0.000000
0.400000 0.500000 0.000000
0.400000 0.550000 0.000000
0.400000 0.600000 0.000000
0.400000 0.650000 0.000000
0.400000 0.700000 0.000000
0.400000 0.750000 0.000000
0.400000 0.800000 0.000000
0.400000 0.850000 0.000000
0.400000 0.900000 0.000000
0.400000 0.950000 0.000000
0.450000 0.050000 0.000000
0.450000 0.100000 0.000000
0.450000 0.150000 0.000000
0.450000 0.200000 0.000000
0.450000 0.250000 0.000000
0.450000 0.300000 0.000000
0.450000 0.350000 0.000000
0.450000 0.400000 0.000000
0.450000 0.450000 0.000000
0.450000 0.500000 0.000000
0.450000 0.550000 0.000000
0.450000 0.600000 0.000000
0.450000 0.650000 0.000000
0.450000 0.700000 0.000000
0.450000 0.750000 0.000000
0.450000 0.800000 0.000000
0.450000 0.850000 0.000000
0.450000 0.900000 0.000000
0.450000 0.950000 0.000000
0.500000 0.050000 0.000000
0.500000 0.100000 0.000000
0.500000 0.150000 0.000000
0.500000 0.200000 0.000000
0.500000 0.250000 0.000000
0.500000 0.300000 0.000000
0.500000 0.350000 0.000000
0.500000 0.400000 0.000000
0.500000 0.450000 0.000000
0.500000 0.500000 0.000000
0.500000 0.550000 0.000000
0.500000 0.600000 0.000000
0.500000 0.650000 0.000000
0.500000 0.700000 0.000000
0.500000 0.750000 0.000000
0.500000 0.800000 0.000000
0.500000 0.850000 0.000000
0.500000 0.900000 0.000000
0.500000 0.950000 0.000000
0.550000 0.050000 0.000000
0.550000 0.100000 0.000000
0.550000 0.150000 0.000000
0.550000 0.200000 0.000000
0.550000 0.250000 0.000000
0.550000 0.300000 0.000000
0.550000 0.350000 0.000000
0.550000 0.400000 0.000000
0.550000 0.450000 0.000000
0.550000 0.500000 0.000000
0.550000 0.550000 0.000000
0.550000 0.600000 0.000000
0.550000 0.650000 0.000000
0.550000 0.700000 0.000000
0.550000 0.750000 0.000000
0.550000 0.800000 0.000000
0.550000 0.850000 0.000000
0.550000 0.900000 0.000000
0.550000 0.950000 0.000000
0.600000 0.050000 0.000000
0.600000 0.100000 0.000000
0.600000 0.150000 0.000000
0.600000 0.200000 0.000000
0.600000 0.250000 0.000000
0.600000 0.300000 0.000000
0.600000 0.350000 0.000000
0.600000 0.400000 0.000000
0.600000 0.450000 0.000000
0.600000 0.500000 0.000000
0.600000 0.550000 0.000000
0.600000 0.600000 0.000000
0.600000 0.650000 0.000000
0.600000 0.700000 0.000000
0.600000 0.750000 0.000000
0.600000 0.800000 0.000000
0.600000 0.850000 0.000000
0.600000 0.900000 0.000000
0.600000 0.950000 0.000000
0.650000 0.050000 0.000000
0.650000 0.100000 0.000000
0.650000 0.150000 0.000000
0.650000 0.200000 0.000000
0.650000 0.250000 0.000000
0.650000 0.300000 0.000000
0.650000 0.350000 0.000000
0.650000 0.400000 0.000000
0.650000 0.450000 0.000000
0.650000 0.500000 0.000000
0.650000 0.550000 0.000000
0.650000 0.600000 0.000000
0.650000 0.650000 0.000000
0.650000 0.700000 0.000000
0.650000 0.750000 0.000000
0.650000 0.800000 0.000000
0.650000 0.850000 0.000000
0.650000 0.900000 0.000000
0.650000 0.950000 0.000000
0.700000 0.050000 0.000000
0.700000 0.100000 0.000000
0.700000 0.150000 0.000000
0.700000 0.200000 0.000000
0.700000 0.250000 0.000000
0.700000 0.300000 0.000000
0.700000 0.350000 0.000000
0.700000 0.400000 0.000000
0.700000 0.450000 0.000000
0.700000 0.500000 0.000000
0.700000 0.550000 0.000000
0.700000 0.600000 0.000000
0.700000 0.650000 0.000000
0.700000 0.700000 0.000000
0.700000 0.750000 0.000000
0.700000 0.800000 0.000000
0.700000 0.850000 0.000000
0.700000 0.900000 0.000000
0.700000 0.950000 0.000000
0.750000 0.050000 0.000000
0.750000 0.100000 0.000000
0.750000 0.150000 0.000000
0.750000 0.200000 0.000000
0.750000 0.250000 0.000000
0.750000 0.300000 0.000000
0.750000 0.350000 0.000000
0.750000 0.400000 0.000000
0.750000 0.450000 0.000000
0.750000 0.500000 0.000000
0.750000 0.550000 0.000000
0.750000 0.600000 0.000000
0.750000 0.650000 0.000000
0.750000 0.700000 0.000000
0.750000 0.750000 0.000000
0.750000 0.800000 0.000000
0.750000 0.850000 0.000000
0.750000 0.900000 0.000000
0.750000 0.950000 0.000000
0.800000 0.050000 0.000000
0.800000 0.100000 0.000000
[...]
CELL_DATA 800
SCALARS PRESSURE float 1
LOOKUP_TABLE default
0.000000
-0.000189
-0.000189
0.000753
0.000684
-0.002401
-0.002336
0.003255
0.003357
-0.003435
-0.003259
0.002068
0.002533
-0.005791
-0.005249
0.002637
0.003492
-0.006246
-0.005407
-0.001328
-0.000190
-0.000517
0.000359
-0.006382
-0.005239
0.003221
0.004109
-0.004685
-0.003969
0.000349
0.001157
0.000546
0.000706
-0.001636
-0.001188
0.001185
0.001352
-0.000357
-0.000339
-0.000045
0.000068
0.000832
0.000767
-0.003471
-0.003550
0.011293
0.011300
-0.015644
-0.015698
0.014585
0.014950
-0.013910
-0.013231
0.023983
0.025112
-0.017293
-0.015839
0.019519
0.021689
0.002622
0.004934
-0.007747
-0.005289
0.024292
0.027045
-0.021627
-0.019391
0.016757
0.019112
-0.007327
-0.005621
-0.002525
-0.001280
0.003989
0.004836
-0.006092
-0.005778
0.001226
0.001548
-0.000009
-0.000023
-0.002389
-0.002571
0.010026
0.009610
-0.025220
-0.025909
0.033243
0.032588
-0.028540
-0.028833
0.028329
0.028301
-0.042022
-0.041493
0.025139
0.026303
-0.030304
-0.028215
-0.012547
-0.010054
0.015435
0.018482
-0.049056
-0.045474
0.032141
0.035466
-0.031211
-0.028081
0.009929
0.012707
-0.003603
-0.001344
-0.005071
-0.003885
0.008886
0.009510
-0.002800
-0.002437
0.000067
0.000007
0.003264
0.003046
-0.012706
-0.013419
0.030381
0.028985
-0.035494
-0.036870
0.032496
0.031084
-0.030806
-0.031995
0.042730
0.042211
-0.017184
-0.016892
0.013783
0.015045
0.027067
0.029035
-0.035757
-0.032906
0.053626
0.057236
-0.033116
-0.029395
0.019380
0.022999
-0.007232
-0.003808
0.005338
0.008238
-0.001000
0.000812
-0.009949
-0.008842
0.002161
0.002568
0.000007
-0.000166
-0.002977
-0.003256
0.012524
0.011479
-0.023017
-0.024835
0.031346
0.029258
-0.025680
-0.028158
0.025813
0.023537
-0.025062
-0.026754
-0.000091
-0.000913
0.021605
0.021794
-0.046243
-0.045193
0.055547
0.057737
-0.047641
-0.044571
0.002730
0.006161
0.016171
0.019847
-0.027495
-0.024001
-0.001774
0.001094
-0.001955
0.000127
0.007112
0.008437
-0.002810
-0.002384
-0.000127
-0.000141
0.002558
0.002212
-0.009382
-0.010705
0.016693
0.014656
-0.022484
-0.025090
0.020068
0.016946
-0.009863
-0.013035
0.010722
0.007839
0.001034
-0.000880
-0.030570
-0.031564
0.028587
0.028430
-0.056244
-0.054998
0.020218
0.022385
0.029856
0.032573
-0.061986
-0.058628
0.058191
0.061339
-0.011972
-0.009434
0.006034
0.008159
-0.010900
-0.009682
0.002718
0.003122
-0.000093
-0.000018
-0.001488
-0.001889
0.005483
0.004117
-0.002146
-0.004362
0.009755
0.006896
0.002035
-0.001291
-0.004542
-0.008226
0.005565
0.001882
0.028999
0.026156
-0.001372
-0.003528
0.043259
0.041991
0.004936
0.005048
0.023938
0.024839
-0.050046
-0.048274
0.065556
0.068146
-0.058156
-0.055816
0.006202
0.008282
-0.012175
-0.010257
0.011211
0.012213
-0.003509
-0.003221
0.000069
-0.000005
0.000139
-0.000185
0.002945
0.001898
-0.011175
-0.013262
0.010384
0.007692
-0.019161
-0.022322
0.030666
0.027011
-0.015380
-0.019166
-0.041433
-0.044900
0.044564
0.041601
-0.106978
-0.108926
0.066895
0.065787
-0.068420
-0.068975
0.052204
0.052884
-0.042780
-0.041375
0.026565
0.027779
0.004807
0.006263
0.009325
0.010730
-0.012610
-0.011840
0.003069
0.003313
-0.000124
-0.000166
0.000316
0.000093
-0.005597
-0.006555
0.017151
0.015506
-0.016381
-0.018552
0.031521
0.028702
-0.033946
-0.037157
0.023105
0.019621
0.035487
0.031722
-0.041276
-0.044584
0.097724
0.095276
-0.064161
-0.066469
0.056028
0.054238
-0.021265
-0.021699
0.002302
0.002297
0.007998
0.008066
-0.017813
-0.017106
-0.005513
-0.004832
0.009744
0.009961
-0.003169
-0.003007
0.000034
0.000048
-0.000264
-0.000337
0.006158
0.005822
-0.012645
-0.013533
0.012874
0.011421
-0.023800
-0.025885
0.020153
0.017712
-0.008412
-0.011394
-0.002840
-0.006354
0.015620
0.012407
-0.022669
-0.025610
0.009702
0.006473
0.007155
0.004522
-0.017036
-0.018636
0.023717
0.022286
-0.021745
-0.022763
0.021664
0.021447
-0.006620
-0.006732
0.000267
0.000274
0.000528
0.000587
0.000028
-0.000145
0.001953
0.001993
-0.010634
-0.010637
0.013503
0.013360
-0.008130
-0.008563
0.018365
0.017570
-0.005532
-0.006876
0.002230
0.000112
-0.021723
-0.024331
-0.004870
-0.007601
-0.015209
-0.018399
0.022552
0.018907
-0.037798
-0.041010
0.028015
0.025210
-0.011936
-0.014594
0.021450
0.019506
-0.017996
-0.019312
0.021323
0.020284
-0.012562
-0.012970
0.002743
0.002727
-0.000014
0.000025
-0.003443
-0.003267
0.012119
0.012432
-0.008960
-0.008460
-0.004328
-0.003775
-0.008671
-0.008092
0.002594
0.002459
-0.007478
-0.008380
0.043339
0.042035
0.004515
0.002457
0.025477
0.022437
-0.018207
-0.021599
0.038090
0.034674
-0.010694
-0.014417
-0.004978
-0.008443
-0.013431
-0.016048
0.014246
0.012064
-0.024921
-0.026608
0.019920
0.019148
-0.004157
-0.004354
0.000076
0.000105
0.002444
0.002728
-0.007057
-0.006243
-0.007082
-0.006048
0.029036
0.030389
-0.019421
-0.017682
0.007771
0.008735
0.014644
0.015141
-0.057187
-0.057147
0.014821
0.013530
-0.029906
-0.032247
0.025912
0.023206
-0.029949
-0.033223
0.008725
0.004779
0.020141
0.016323
0.005728
0.002442
0.004226
0.001435
0.017477
0.015542
-0.013898
-0.014920
0.003855
0.003419
-0.000007
0.000048
-0.001859
-0.001403
0.003521
0.004743
0.013252
0.014847
-0.047975
-0.045769
0.041488
0.044164
-0.028464
-0.026377
-0.003260
-0.001367
0.034774
0.035886
-0.015822
-0.016022
0.022448
0.021391
-0.022535
-0.024611
0.027918
0.024900
-0.012249
-0.015657
-0.009118
-0.012726
0.001444
-0.002188
-0.009382
-0.012432
-0.001509
-0.003533
0.004595
0.003347
-0.000501
-0.001018
0.000077
0.000068
0.001674
0.002098
-0.004184
-0.002933
-0.012309
-0.010191
0.039636
0.042399
-0.044552
-0.041382
0.019479
0.022570
-0.003931
-0.000923
-0.016213
-0.014293
0.013085
0.014078
-0.012700
-0.012328
0.014178
0.012951
-0.018386
-0.020662
0.020767
0.018272
-0.008988
-0.011961
0.011092
0.007861
0.007224
0.004333
-0.005285
-0.007256
0.007463
0.006394
-0.001573
-0.002061
-0.000060
0.000159
-0.001393
-0.001144
0.002556
0.003954
0.004272
0.006623
-0.019920
-0.017054
0.017232
0.020604
0.009868
0.013453
-0.021062
-0.017260
0.018625
0.021430
-0.031751
-0.029737
0.017434
0.018909
-0.016576
-0.016544
0.018631
0.017607
-0.020102
-0.021688
0.028339
0.026159
-0.011313
-0.013609
-0.003929
-0.006265
0.018899
0.017217
-0.016438
-0.017509
0.005276
0.004826
0.000136
-0.000015
0.000563
0.000729
-0.001015
0.000181
-0.001490
0.000338
-0.002742
0.000113
0.001472
0.004931
-0.031679
-0.028257
0.016164
0.020070
-0.011227
-0.007753
0.023162
0.025902
-0.019273
-0.017104
0.010321
0.011514
-0.014401
-0.014039
0.009975
0.009392
-0.028402
-0.029664
0.006466
0.005193
0.008336
0.006808
-0.023403
-0.024592
0.021842
0.021181
-0.005587
-0.005758
0.000042
0.000026
0.000688
0.001004
-0.004033
-0.003253
0.003511
0.004672
0.002869
0.005350
-0.004877
-0.002024
0.017981
0.020845
0.000134
0.003593
-0.010751
-0.007272
-0.008088
-0.005092
0.008946
0.011484
-0.005936
-0.003999
0.007722
0.009086
-0.000837
-0.000318
0.017870
0.017687
0.002369
0.002131
-0.009932
-0.010647
0.022424
0.021811
-0.017864
-0.018319
0.004630
0.004619
-0.000031
-0.000001
-0.000765
-0.000560
0.003278
0.003599
-0.004210
-0.003408
-0.000695
0.000727
-0.001200
0.000360
-0.006291
-0.003997
-0.010024
-0.007421
0.008327
0.010908
-0.000868
0.001645
-0.008667
-0.006309
0.003662
0.005667
-0.008839
-0.007192
-0.000866
0.000163
-0.008304
-0.007682
-0.005174
-0.004784
0.007956
0.007798
-0.013123
-0.013122
0.009727
0.009365
-0.002244
-0.002343
0.000093
0.000054
0.000192
0.000243
-0.000846
-0.000650
0.000986
0.001452
-0.000009
0.000192
0.000300
0.000785
0.001202
0.002032
0.002601
0.003518
-0.001913
-0.000890
0.000107
0.001024
0.002048
0.003123
-0.000918
-0.000070
0.002116
0.003006
0.000429
0.000823
0.001574
0.002229
0.001741
0.001751
-0.001962
-0.001631
0.002760
0.002858
-0.001917
-0.001824
0.000427
0.000427
0.000000
