# vtk DataFile Version 2.0
SquarePlate_mix
ASCII
DATASET POLYDATA
POINTS 441 float
0.000000 0.000000 0.000000
1.000000 0.000000 0.000000
1.000000 1.000000 0.000000
0.000000 1.000000 0.000000
0.050000 0.000000 0.000000
0.100000 0.000000 0.000000
0.150000 0.000000 0.000000
0.200000 0.000000 0.000000
0.250000 0.000000 0.000000
0.300000 0.000000 0.000000
0.350000 0.000000 0.000000
0.400000 0.000000 0.000000
0.450000 0.000000 0.000000
0.500000 0.000000 0.000000
0.550000 0.000000 0.000000
0.600000 0.000000 0.000000
0.650000 0.000000 0.000000
0.700000 0.000000 0.000000
0.750000 0.000000 0.000000
0.800000 0.000000 0.000000
0.850000 0.000000 0.000000
0.900000 0.000000 0.000000
0.950000 0.000000 0.000000
1.000000 0.050000 0.000000
1.000000 0.100000 0.000000
1.000000 0.150000 0.000000
1.000000 0.200000 0.000000
1.000000 0.250000 0.000000
1.000000 0.300000 0.000000
1.000000 0.350000 0.000000
1.000000 0.400000 0.000000
1.000000 0.450000 0.000000
1.000000 0.500000 0.000000
1.000000 0.550000 0.000000
1.000000 0.600000 0.000000
1.000000 0.650000 0.000000
1.000000 0.700000 0.000000
1.000000 0.750000 0.000000
1.000000 0.800000 0.000000
1.000000 0.850000 0.000000
1.000000 0.900000 0.000000
1.000000 0.950000 0.000000
0.950000 1.000000 0.000000
0.900000 1.000000 0.000000
0.850000 1.000000 0.000000
0.800000 1.000000 0.000000
0.750000 1.000000 0.000000
0.700000 1.000000 0.000000
0.650000 1.000000 0.000000
0.600000 1.000000 0.000000
0.550000 1.000000 0.000000
0.500000 1.000000 0.000000
0.450000 1.000000 0.000000
0.400000 1.000000 0.000000
0.350000 1.000000 0.000000
0.300000 1.000000 0.000000
0.250000 1.000000 0.000000
0.200000 1.000000 0.000000
0.150000 1.000000 0.000000
0.100000 1.000000 0.000000
0.050000 1.000000 0.000000
0.000000 0.950000 0.000000
0.000000 0.900000 0.000000
0.000000 0.850000 0.000000
0.000000 0.800000 0.000000
0.000000 0.750000 0.000000
0.000000 0.700000 0.000000
0.000000 0.650000 0.000000
0.000000 0.600000 0.000000
0.000000 0.550000 0.000000
0.000000 0.500000 0.000000
0.000000 0.450000 0.000000
0.000000 0.400000 0.000000
0.000000 0.350000 0.000000
0.000000 0.300000 0.000000
0.000000 0.250000 0.000000
0.000000 0.200000 0.000000
0.000000 0.150000 0.000000
0.000000 0.100000 0.000000
0.000000 0.050000 0.000000
0.720789 0.858350 0.000000
0.627759 0.951883 0.000000
0.860790 0.605296 0.000000
0.591448 0.141808 0.000000
0.906331 0.357339 0.000000
0.412094 0.719788 0.000000
0.669799 0.531295 0.000000
0.953418 0.439516 0.000000
0.746903 0.811640 0.000000
0.907633 0.523027 0.000000
0.846581 0.103261 0.000000
0.717768 0.195469 0.000000
0.702443 0.143368 0.000000
0.891052 0.953508 0.000000
0.509085 0.095143 0.000000
0.953113 0.718294 0.000000
0.676833 0.951574 0.000000
0.781324 0.951805 0.000000
0.427606 0.047980 0.000000
0.048136 0.719840 0.000000
0.385854 0.671772 0.000000
0.084842 0.091340 0.000000
0.046073 0.551905 0.000000
0.606399 0.766794 0.000000
0.582608 0.575030 0.000000
0.231700 0.604188 0.000000
0.046248 0.495474 0.000000
0.137665 0.821961 0.000000
0.366260 0.622536 0.000000
0.721267 0.571739 0.000000
0.050212 0.831700 0.000000
0.675564 0.578345 0.000000
0.343817 0.190366 0.000000
0.805749 0.904653 0.000000
0.334005 0.573155 0.000000
0.133677 0.180634 0.000000
0.628750 0.575708 0.000000
0.189113 0.806047 0.000000
0.672533 0.332784 0.000000
0.481604 0.047984 0.000000
0.285278 0.375456 0.000000
0.625317 0.623484 0.000000
0.209391 0.143752 0.000000
0.238673 0.095906 0.000000
0.764555 0.661632 0.000000
0.813367 0.628979 0.000000
0.107967 0.954176 0.000000
0.627728 0.287525 0.000000
0.262975 0.144196 0.000000
0.836094 0.951603 0.000000
0.242107 0.715715 0.000000
0.140993 0.716544 0.000000
0.093642 0.800295 0.000000
0.319410 0.048386 0.000000
0.440429 0.674285 0.000000
0.953291 0.885254 0.000000
0.231760 0.660543 0.000000
0.535737 0.579264 0.000000
0.535233 0.286883 0.000000
0.479348 0.351460 0.000000
0.728080 0.951649 0.000000
0.341136 0.286006 0.000000
0.507591 0.189911 0.000000
0.908735 0.043581 0.000000
0.234179 0.497115 0.000000
0.235304 0.443526 0.000000
0.657421 0.672212 0.000000
0.288869 0.190836 0.000000
0.716847 0.467620 0.000000
0.448518 0.181324 0.000000
0.156634 0.140095 0.000000
0.953867 0.055288 0.000000
0.433258 0.952291 0.000000
0.674465 0.624884 0.000000
0.802704 0.810686 0.000000
0.162149 0.951630 0.000000
0.186546 0.633858 0.000000
0.332724 0.381793 0.000000
0.335026 0.333769 0.000000
0.551950 0.859921 0.000000
0.325994 0.952023 0.000000
0.859475 0.050429 0.000000
0.467734 0.813472 0.000000
0.859887 0.440557 0.000000
0.766959 0.549492 0.000000
0.795537 0.718550 0.000000
0.424150 0.138804 0.000000
0.273743 0.626578 0.000000
0.380226 0.383715 0.000000
0.091789 0.198015 0.000000
0.727864 0.090403 0.000000
0.184764 0.191866 0.000000
0.356415 0.812257 0.000000
0.668361 0.483646 0.000000
0.317400 0.143545 0.000000
0.398120 0.189964 0.000000
0.049068 0.052692 0.000000
0.860448 0.495148 0.000000
0.767395 0.278689 0.000000
0.574117 0.381373 0.000000
0.764984 0.441328 0.000000
0.766449 0.225148 0.000000
0.821528 0.762517 0.000000
0.100081 0.858080 0.000000
0.859826 0.385702 0.000000
0.621968 0.383458 0.000000
0.410914 0.905430 0.000000
0.454645 0.095534 0.000000
0.187784 0.742267 0.000000
0.581532 0.284540 0.000000
0.104837 0.044848 0.000000
0.856009 0.813510 0.000000
0.833978 0.858560 0.000000
0.531590 0.235804 0.000000
0.904317 0.690960 0.000000
0.621007 0.526664 0.000000
0.952396 0.663646 0.000000
0.189727 0.690609 0.000000
0.439524 0.859420 0.000000
0.163839 0.859741 0.000000
0.720531 0.305312 0.000000
0.283872 0.424209 0.000000
0.572261 0.526963 0.000000
0.224588 0.767680 0.000000
0.046966 0.439415 0.000000
0.812591 0.467941 0.000000
0.093562 0.635530 0.000000
0.186653 0.523989 0.000000
0.860656 0.659802 0.000000
0.700548 0.045518 0.000000
0.092621 0.579613 0.000000
0.788550 0.092851 0.000000
0.216377 0.855334 0.000000
0.345800 0.096102 0.000000
0.618634 0.093581 0.000000
0.950522 0.108107 0.000000
0.901802 0.137952 0.000000
0.244633 0.903937 0.000000
0.239743 0.286605 0.000000
0.140651 0.441192 0.000000
0.266229 0.048075 0.000000
0.475961 0.398571 0.000000
0.578421 0.332612 0.000000
0.281311 0.675045 0.000000
0.674237 0.232468 0.000000
0.895219 0.855752 0.000000
0.495718 0.859855 0.000000
0.813183 0.677976 0.000000
0.094096 0.690871 0.000000
0.354944 0.904964 0.000000
0.372729 0.047726 0.000000
0.721168 0.250490 0.000000
0.580554 0.237218 0.000000
0.604101 0.672057 0.000000
0.291880 0.096249 0.000000
0.382974 0.335544 0.000000
0.580884 0.952200 0.000000
0.475943 0.444887 0.000000
0.533984 0.952461 0.000000
0.525276 0.388546 0.000000
0.860014 0.330484 0.000000
0.572886 0.429925 0.000000
0.095568 0.357411 0.000000
0.952166 0.217875 0.000000
0.300644 0.810772 0.000000
0.432742 0.330487 0.000000
0.687805 0.718464 0.000000
0.645369 0.139681 0.000000
0.047791 0.383922 0.000000
0.769024 0.764443 0.000000
0.139434 0.606918 0.000000
0.524491 0.437197 0.000000
0.911440 0.906223 0.000000
0.904502 0.191129 0.000000
0.563825 0.094758 0.000000
0.133299 0.094876 0.000000
0.421599 0.235992 0.000000
0.258314 0.237631 0.000000
0.158475 0.047208 0.000000
0.093233 0.468111 0.000000
0.486696 0.304226 0.000000
0.550053 0.673685 0.000000
0.191875 0.304009 0.000000
0.906212 0.301817 0.000000
0.521739 0.627791 0.000000
0.331475 0.429919 0.000000
0.467643 0.721016 0.000000
0.574374 0.624446 0.000000
0.768557 0.604588 0.000000
0.086420 0.908626 0.000000
0.628398 0.238683 0.000000
0.049661 0.274636 0.000000
0.757063 0.047331 0.000000
0.426980 0.431005 0.000000
0.710840 0.670836 0.000000
0.287562 0.328085 0.000000
0.813771 0.304329 0.000000
0.143823 0.331716 0.000000
0.282928 0.575284 0.000000
0.952534 0.328873 0.000000
0.327865 0.525418 0.000000
0.860927 0.903702 0.000000
0.392111 0.286688 0.000000
0.523101 0.720952 0.000000
0.716642 0.763692 0.000000
0.187211 0.469313 0.000000
0.954068 0.551302 0.000000
0.813508 0.521746 0.000000
0.620238 0.478642 0.000000
0.139743 0.496290 0.000000
0.186192 0.094305 0.000000
0.048835 0.328978 0.000000
0.907276 0.801472 0.000000
0.664568 0.858835 0.000000
0.468288 0.628210 0.000000
0.811388 0.048483 0.000000
0.674774 0.094714 0.000000
0.487047 0.582532 0.000000
0.608225 0.859556 0.000000
0.141266 0.662453 0.000000
0.635438 0.812963 0.000000
0.424638 0.528992 0.000000
0.905657 0.246191 0.000000
0.668862 0.434343 0.000000
0.385245 0.575095 0.000000
0.953932 0.495221 0.000000
0.475261 0.490841 0.000000
0.674199 0.281874 0.000000
0.200686 0.245920 0.000000
0.095773 0.746869 0.000000
0.044383 0.113126 0.000000
0.645877 0.047042 0.000000
0.185429 0.578374 0.000000
0.861143 0.549933 0.000000
0.327883 0.858094 0.000000
0.717577 0.413908 0.000000
0.615821 0.189835 0.000000
0.811908 0.194260 0.000000
0.474586 0.536198 0.000000
0.523663 0.813726 0.000000
0.535871 0.047634 0.000000
0.318131 0.621787 0.000000
0.495580 0.767387 0.000000
0.271499 0.951643 0.000000
0.139024 0.551322 0.000000
0.952269 0.775000 0.000000
0.899765 0.090312 0.000000
0.744019 0.713723 0.000000
0.718998 0.360076 0.000000
0.562390 0.188687 0.000000
0.484711 0.952286 0.000000
0.190376 0.359390 0.000000
0.590528 0.046981 0.000000
0.766634 0.332905 0.000000
0.331106 0.477812 0.000000
0.907239 0.634408 0.000000
0.467164 0.905641 0.000000
0.693622 0.904775 0.000000
0.435941 0.578880 0.000000
0.046575 0.608304 0.000000
0.749938 0.904591 0.000000
0.047463 0.775012 0.000000
0.094308 0.412615 0.000000
0.952908 0.384155 0.000000
0.426860 0.480426 0.000000
0.379291 0.431303 0.000000
0.572286 0.478529 0.000000
0.047153 0.664196 0.000000
0.580429 0.905879 0.000000
0.379138 0.478929 0.000000
0.951515 0.162628 0.000000
0.907594 0.578674 0.000000
0.813709 0.249235 0.000000
0.551142 0.767246 0.000000
0.765735 0.387164 0.000000
0.047059 0.221806 0.000000
0.234537 0.193080 0.000000
0.142164 0.386212 0.000000
0.411911 0.812839 0.000000
0.907108 0.467749 0.000000
0.814469 0.575564 0.000000
0.315109 0.236674 0.000000
0.813215 0.359151 0.000000
0.523731 0.532916 0.000000
0.045651 0.885278 0.000000
0.948508 0.945993 0.000000
0.523905 0.485361 0.000000
0.442056 0.280446 0.000000
0.302310 0.719183 0.000000
0.383632 0.858963 0.000000
0.233885 0.551670 0.000000
0.416574 0.625535 0.000000
0.212849 0.047246 0.000000
0.332167 0.670044 0.000000
0.272792 0.858275 0.000000
0.238848 0.337332 0.000000
0.236645 0.390106 0.000000
0.050346 0.946842 0.000000
0.854139 0.714950 0.000000
0.329952 0.765352 0.000000
0.191192 0.905263 0.000000
0.283254 0.474033 0.000000
0.495297 0.674876 0.000000
0.858928 0.218404 0.000000
0.481568 0.142652 0.000000
0.136385 0.902918 0.000000
0.439893 0.766841 0.000000
0.246739 0.812301 0.000000
0.380059 0.951966 0.000000
0.953780 0.607505 0.000000
0.487852 0.255235 0.000000
0.146687 0.228624 0.000000
0.536147 0.142112 0.000000
0.098123 0.248648 0.000000
0.399138 0.093807 0.000000
0.625393 0.335879 0.000000
0.859952 0.274803 0.000000
0.049338 0.165991 0.000000
0.290297 0.282466 0.000000
0.722602 0.622115 0.000000
0.906590 0.412605 0.000000
0.949590 0.832769 0.000000
0.636989 0.905343 0.000000
0.147590 0.277735 0.000000
0.777253 0.857861 0.000000
0.907851 0.743559 0.000000
0.764982 0.495595 0.000000
0.371869 0.143136 0.000000
0.691404 0.811840 0.000000
0.632636 0.719569 0.000000
0.579536 0.813561 0.000000
0.752408 0.130914 0.000000
0.806959 0.141378 0.000000
0.812713 0.413719 0.000000
0.369268 0.238228 0.000000
0.188438 0.414605 0.000000
0.523870 0.906008 0.000000
0.098049 0.141049 0.000000
0.620952 0.430924 0.000000
0.144998 0.771302 0.000000
0.217355 0.952245 0.000000
0.578092 0.720128 0.000000
0.867682 0.765434 0.000000
0.375761 0.526487 0.000000
0.717446 0.520624 0.000000
0.952282 0.273161 0.000000
0.467629 0.220715 0.000000
0.669877 0.383942 0.000000
0.274847 0.762649 0.000000
0.281349 0.524637 0.000000
0.661624 0.765880 0.000000
0.856419 0.160882 0.000000
0.299820 0.904939 0.000000
0.356815 0.718062 0.000000
0.428007 0.380686 0.000000
0.762360 0.174457 0.000000
0.384553 0.765763 0.000000
0.097709 0.302313 0.000000
0.530430 0.338539 0.000000
0.666055 0.185584 0.000000
0.092517 0.523730 0.000000
POLYGONS 800 3200
3 79 0 4
3 78 79 176
3 101 176 190
3 4 176 79
3 190 176 4
3 78 176 310
3 310 176 101
3 76 77 397
3 310 77 78
3 397 77 310
3 397 417 169
3 417 397 310
3 393 355 169
3 169 355 397
3 417 115 169
3 397 355 76
3 310 101 417
3 76 355 75
3 101 255 417
3 5 6 190
3 190 6 258
3 5 190 4
3 258 7 372
3 7 258 6
3 290 372 123
3 372 290 258
3 372 220 123
3 190 258 255
3 255 258 290
3 150 115 417
3 255 290 150
3 115 150 171
3 417 255 150
3 356 122 128
3 122 150 290
3 171 391 115
3 356 171 122
3 308 356 257
3 122 171 150
3 123 122 290
3 169 115 391
3 372 7 8
3 255 101 190
3 308 171 356
3 74 75 271
3 73 74 291
3 271 437 291
3 437 271 393
3 73 291 248
3 242 291 437
3 242 357 342
3 271 291 74
3 355 271 75
3 248 291 242
3 71 204 106
3 204 71 72
3 71 106 70
3 248 342 204
3 342 248 242
3 204 259 106
3 259 204 342
3 259 342 219
3 248 204 72
3 72 73 248
3 440 106 259
3 277 242 437
3 437 403 277
3 271 355 393
3 403 393 391
3 277 357 242
3 403 308 262
3 308 403 391
3 262 331 277
3 218 375 262
3 218 262 308
3 262 277 403
3 391 171 308
3 331 262 375
3 285 219 415
3 219 342 357
3 415 219 357
3 259 219 289
3 331 376 415
3 376 331 375
3 415 145 285
3 145 415 376
3 145 376 201
3 331 415 357
3 357 277 331
3 144 285 145
3 376 375 120
3 393 403 437
3 169 391 393
3 219 285 289
3 128 122 123
3 8 9 220
3 220 9 133
3 234 123 220
3 213 133 230
3 10 133 9
3 407 174 213
3 220 133 234
3 234 133 213
3 356 147 257
3 356 128 147
3 147 128 174
3 257 147 361
3 112 147 174
3 234 213 174
3 414 361 112
3 361 147 112
3 174 407 112
3 174 128 234
3 123 234 128
3 398 257 361
3 230 133 10
3 308 257 218
3 394 230 98
3 11 230 10
3 98 230 11
3 394 407 213
3 98 12 119
3 12 98 11
3 384 187 94
3 119 187 98
3 12 13 119
3 98 187 394
3 394 187 166
3 112 175 414
3 175 407 166
3 256 175 149
3 175 112 407
3 166 384 149
3 384 166 187
3 426 256 149
3 142 426 149
3 426 193 390
3 149 175 166
3 407 394 166
3 256 426 367
3 142 149 384
3 394 213 230
3 175 256 414
3 275 120 375
3 275 218 398
3 120 275 158
3 120 201 376
3 361 141 398
3 398 218 257
3 235 158 141
3 158 275 141
3 157 158 168
3 141 275 398
3 414 141 361
3 120 158 157
3 334 381 265
3 381 145 201
3 265 381 201
3 280 381 334
3 345 265 168
3 157 265 201
3 349 345 273
3 349 334 345
3 168 265 157
3 345 334 265
3 201 120 157
3 423 334 349
3 282 141 414
3 218 275 375
3 235 282 245
3 282 235 141
3 245 282 367
3 434 235 245
3 367 390 260
3 282 414 256
3 221 139 239
3 139 245 260
3 139 260 438
3 260 245 367
3 367 282 256
3 434 245 139
3 273 344 349
3 273 168 434
3 344 273 237
3 273 345 168
3 221 237 273
3 221 434 139
3 306 363 318
3 306 344 237
3 237 221 251
3 273 434 221
3 168 235 434
3 349 344 301
3 366 306 237
3 235 168 158
3 426 390 367
3 144 145 381
3 94 187 119
3 372 8 220
3 344 306 301
3 69 70 102
3 68 69 102
3 102 440 210
3 102 70 106
3 206 210 250
3 68 102 339
3 440 102 106
3 339 102 210
3 66 67 347
3 339 67 68
3 347 67 339
3 347 206 228
3 206 347 339
3 99 228 309
3 228 99 347
3 228 206 299
3 347 99 66
3 339 210 206
3 65 66 99
3 324 210 440
3 250 324 312
3 250 210 324
3 207 324 289
3 299 206 250
3 207 370 312
3 144 370 207
3 250 312 156
3 105 312 370
3 105 167 136
3 207 312 324
3 289 285 207
3 156 312 105
3 228 131 309
3 228 299 131
3 131 299 197
3 419 309 131
3 156 136 197
3 136 156 105
3 130 203 188
3 188 131 197
3 130 188 197
3 197 299 156
3 299 250 156
3 419 131 188
3 105 370 278
3 324 440 289
3 259 289 440
3 341 99 309
3 64 65 341
3 63 64 110
3 341 132 110
3 341 309 132
3 183 269 364
3 364 63 110
3 183 364 110
3 110 64 341
3 99 341 65
3 63 364 62
3 61 62 377
3 3 61 60
3 59 377 126
3 377 62 364
3 59 60 377
3 126 377 269
3 377 60 61
3 364 269 377
3 183 110 132
3 132 107 183
3 107 132 419
3 107 419 117
3 183 107 199
3 212 117 387
3 117 419 188
3 199 212 380
3 212 199 117
3 380 212 217
3 117 199 107
3 419 132 309
3 183 199 385
3 58 126 155
3 126 269 385
3 155 126 385
3 126 58 59
3 155 380 420
3 380 155 385
3 57 420 56
3 420 57 155
3 420 380 217
3 155 57 58
3 385 199 380
3 203 387 117
3 385 269 183
3 203 117 188
3 130 197 136
3 429 278 370
3 144 381 429
3 278 429 280
3 278 167 105
3 278 114 321
3 114 278 280
3 114 108 321
3 373 321 108
3 280 429 381
3 278 321 167
3 428 130 368
3 136 167 223
3 130 136 223
3 428 387 203
3 223 373 368
3 223 167 321
3 428 368 379
3 433 368 373
3 433 373 100
3 223 368 130
3 321 373 223
3 433 379 368
3 114 280 423
3 203 130 428
3 114 304 108
3 304 114 423
3 304 423 301
3 371 108 304
3 301 318 338
3 423 349 301
3 371 304 338
3 297 338 318
3 297 318 363
3 301 338 304
3 334 423 280
3 294 338 297
3 85 100 134
3 371 100 108
3 134 100 371
3 100 85 433
3 134 294 382
3 294 134 371
3 322 266 283
3 382 266 134
3 382 294 264
3 134 266 85
3 371 338 294
3 436 433 85
3 264 294 297
3 108 100 373
3 306 318 301
3 386 85 266
3 212 374 217
3 212 387 374
3 374 387 244
3 432 217 374
3 244 379 172
3 244 387 428
3 229 314 369
3 172 314 244
3 379 436 172
3 244 314 374
3 428 379 244
3 432 374 314
3 55 56 323
3 56 420 323
3 432 323 217
3 160 323 432
3 54 160 388
3 229 160 432
3 54 55 160
3 160 229 388
3 160 55 323
3 432 314 229
3 314 172 369
3 323 420 217
3 172 358 369
3 186 229 369
3 358 436 386
3 369 358 198
3 386 322 162
3 386 436 85
3 336 198 226
3 198 358 162
3 198 162 226
3 162 358 386
3 266 322 386
3 369 198 186
3 53 388 152
3 388 229 186
3 152 388 186
3 388 53 54
3 336 330 152
3 416 330 336
3 152 52 53
3 52 152 330
3 330 51 52
3 336 152 186
3 186 198 336
3 319 162 322
3 172 436 358
3 379 433 436
3 266 382 283
3 429 370 144
3 285 144 207
3 260 390 138
3 13 14 320
3 320 14 332
3 320 94 119
3 214 332 311
3 15 332 14
3 311 332 15
3 320 332 254
3 254 332 214
3 384 392 142
3 384 94 392
3 392 94 254
3 142 392 329
3 83 329 392
3 83 254 214
3 193 142 329
3 316 329 83
3 316 83 247
3 83 392 254
3 94 320 254
3 316 232 329
3 83 214 247
3 142 193 426
3 209 311 16
3 16 311 15
3 209 16 17
3 209 18 272
3 18 209 17
3 411 170 211
3 272 170 209
3 18 19 272
3 311 209 296
3 296 209 170
3 316 439 270
3 439 247 92
3 224 439 91
3 439 316 247
3 170 92 296
3 92 170 411
3 91 439 92
3 435 91 92
3 91 181 231
3 92 247 296
3 214 296 247
3 224 91 231
3 170 272 211
3 296 214 311
3 439 224 270
3 138 438 260
3 239 139 438
3 138 193 232
3 438 138 222
3 189 222 138
3 127 222 189
3 185 241 179
3 179 438 222
3 179 222 185
3 138 232 189
3 193 329 232
3 438 179 239
3 346 366 251
3 366 237 251
3 251 221 239
3 241 251 239
3 241 418 288
3 241 239 179
3 366 346 202
3 288 346 241
3 418 303 288
3 241 346 251
3 241 185 418
3 288 202 346
3 189 232 270
3 193 138 390
3 222 127 395
3 395 185 222
3 127 270 307
3 395 127 118
3 307 231 200
3 307 270 224
3 118 200 328
3 200 118 307
3 200 231 178
3 307 118 127
3 224 231 307
3 395 118 427
3 303 173 288
3 418 427 303
3 173 303 148
3 418 185 427
3 427 328 315
3 427 185 395
3 354 315 328
3 148 303 315
3 328 200 333
3 315 303 427
3 118 328 427
3 424 173 148
3 180 148 315
3 189 270 127
3 232 316 270
3 173 195 288
3 411 435 92
3 363 306 366
3 272 295 211
3 412 411 211
3 295 19 20
3 90 211 295
3 161 143 326
3 21 161 20
3 90 295 161
3 20 161 295
3 90 161 326
3 181 435 317
3 411 412 435
3 317 435 412
3 181 178 231
3 431 317 412
3 216 431 90
3 181 317 352
3 383 317 431
3 383 431 253
3 431 412 90
3 211 90 412
3 383 352 317
3 216 90 326
3 272 19 295
3 21 22 143
3 143 22 151
3 326 143 151
3 23 151 22
3 151 215 326
3 24 151 23
3 23 22 1
3 215 151 24
3 253 216 350
3 216 326 215
3 350 216 215
3 216 253 431
3 350 25 26
3 25 350 215
3 243 26 27
3 26 243 350
3 350 243 253
3 215 24 25
3 383 253 302
3 143 161 21
3 243 302 253
3 362 333 276
3 354 328 333
3 276 333 178
3 333 362 354
3 352 396 276
3 352 383 396
3 276 240 362
3 240 276 396
3 184 240 84
3 352 276 178
3 178 181 352
3 362 240 184
3 205 180 413
3 180 315 354
3 413 180 354
3 406 180 205
3 413 184 163
3 413 354 362
3 177 205 163
3 359 177 163
3 400 163 184
3 163 205 413
3 362 184 413
3 180 406 148
3 240 396 263
3 200 178 333
3 302 425 263
3 302 243 425
3 263 425 279
3 263 84 240
3 28 279 425
3 279 29 343
3 29 279 28
3 28 425 27
3 243 27 425
3 263 279 84
3 400 87 359
3 343 400 84
3 400 359 163
3 400 184 84
3 343 30 87
3 343 84 279
3 359 87 305
3 31 87 30
3 343 87 400
3 29 30 343
3 177 359 89
3 396 302 263
3 383 302 396
3 31 305 87
3 181 91 435
3 205 177 287
3 363 202 137
3 363 366 202
3 137 202 104
3 137 264 297
3 104 195 116
3 195 104 202
3 116 195 86
3 137 104 267
3 424 86 173
3 121 104 116
3 261 283 382
3 261 264 267
3 283 261 421
3 322 283 353
3 267 121 233
3 121 267 104
3 421 233 409
3 421 261 233
3 121 146 233
3 233 261 267
3 264 137 267
3 353 283 421
3 116 153 121
3 382 264 261
3 111 153 116
3 111 86 109
3 153 111 399
3 121 153 146
3 109 399 111
3 268 399 109
3 153 399 274
3 268 124 399
3 109 424 164
3 109 86 424
3 195 173 86
3 274 399 124
3 430 409 246
3 409 233 146
3 246 409 146
3 421 409 103
3 274 327 246
3 327 274 124
3 246 284 430
3 284 246 327
3 284 249 88
3 274 246 146
3 146 153 274
3 430 284 408
3 284 327 249
3 116 86 111
3 202 288 195
3 430 103 409
3 319 226 162
3 322 353 319
3 319 353 410
3 226 319 159
3 298 410 300
3 410 159 319
3 159 298 348
3 298 159 410
3 410 103 300
3 410 353 103
3 353 421 103
3 226 159 416
3 330 238 51
3 330 416 238
3 238 416 348
3 51 238 50
3 236 50 238
3 236 348 81
3 49 50 236
3 236 81 49
3 236 238 348
3 416 159 348
3 402 348 298
3 416 336 226
3 300 408 293
3 300 103 430
3 293 408 80
3 298 293 402
3 340 80 404
3 80 337 293
3 337 340 140
3 340 337 80
3 404 80 88
3 80 408 88
3 430 408 300
3 402 293 337
3 48 81 96
3 81 348 402
3 96 81 402
3 81 48 49
3 96 140 47
3 96 402 337
3 46 47 140
3 46 140 97
3 96 47 48
3 337 140 96
3 97 140 340
3 298 300 293
3 284 88 408
3 124 165 327
3 363 137 297
3 164 268 109
3 164 406 287
3 268 164 360
3 124 268 125
3 287 313 360
3 287 177 313
3 268 360 125
3 82 360 313
3 82 351 335
3 287 360 164
3 205 287 406
3 125 360 82
3 227 165 124
3 124 125 227
3 227 125 208
3 165 227 378
3 208 335 194
3 208 125 82
3 378 194 405
3 194 378 208
3 335 196 194
3 208 378 227
3 82 335 208
3 182 165 378
3 82 313 351
3 165 249 327
3 286 351 89
3 89 351 313
3 313 177 89
3 286 89 305
3 32 33 286
3 351 286 389
3 34 286 33
3 32 286 305
3 305 31 32
3 389 286 34
3 194 95 405
3 196 95 194
3 95 196 36
3 325 405 95
3 35 36 196
3 35 389 34
3 37 95 36
3 196 389 35
3 389 196 335
3 325 95 37
3 335 351 389
3 305 89 359
3 422 378 405
3 154 404 88
3 154 249 182
3 404 154 192
3 113 340 404
3 182 422 191
3 422 182 378
3 281 192 225
3 192 154 191
3 225 192 191
3 191 154 182
3 249 165 182
3 404 192 113
3 45 97 129
3 97 340 113
3 129 97 113
3 97 45 46
3 129 281 93
3 281 129 113
3 44 93 43
3 93 44 129
3 93 281 252
3 129 44 45
3 113 192 281
3 191 422 292
3 88 249 154
3 225 292 401
3 292 225 191
3 401 292 325
3 225 401 135
3 38 39 401
3 38 325 37
3 135 39 40
3 135 401 39
3 401 325 38
3 422 405 292
3 225 135 252
3 93 365 43
3 93 252 365
3 252 135 365
3 43 365 42
3 41 42 365
3 2 42 41
3 41 365 40
3 135 40 365
3 252 281 225
3 405 325 292
3 164 424 406
3 424 148 406
3 13 320 119
POINT_DATA 441
SCALARS P float 1
LOOKUP_TABLE default
0.000000
0.000000
0.000000
0.000000
0.000000
0.000000
0.000000
0.000000
0.000000
0.000000
0.000000
0.000000
0.000000
0.000000
0.000000
0.000000
0.000000
0.000000
0.000000
0.000000
0.000000
0.000000
0.000000
0.000000
0.000001
0.000004
0.000008
0.000013
0.000019
0.000024
0.000028
0.000030
0.000031
0.000030
0.000028
0.000024
0.000019
0.000013
0.000008
0.000004
0.000001
0.000000
0.000000
0.000000
0.000000
0.000000
0.000000
0.000000
0.000000
0.000000
0.000000
0.000000
0.000000
0.000000
0.000000
0.000000
0.000000
0.000000
0.000000
0.000000
0.000000
-0.000000
-0.000001
-0.000004
-0.000008
-0.000013
-0.000019
-0.000024
-0.000028
-0.000030
-0.000031
-0.000030
-0.000028
-0.000024
-0.000019
-0.000013
-0.000008
-0.000004
-0.000001
-0.000000
0.000004
0.000003
-0.000007
0.000002
0.000002
0.000004
-0.000019
0.000014
0.000001
0.000002
0.000003
0.000000
0.000003
0.000002
0.000000
0.000008
0.000004
0.000003
-0.000002
-0.000008
0.000008
-0.000002
-0.000015
-0.000002
-0.000010
0.000016
-0.000015
-0.000002
0.000013
-0.000019
-0.000003
-0.000018
-0.000000
0.000004
0.000017
-0.000002
-0.000015
-0.000000
-0.000012
-0.000000
0.000016
-0.000012
-0.000003
-0.000005
-0.000012
-0.000012
-0.000001
-0.000006
-0.000003
0.000003
0.000008
0.000003
-0.000002
-0.000004
0.000005
0.000002
0.000012
-0.000004
-0.000002
0.000002
0.000004
0.000007
0.000000
0.000001
0.000020
0.000019
-0.000011
-0.000000
-0.000020
-0.000000
-0.000003
0.000001
-0.000002
-0.000015
0.000001
-0.000003
0.000011
0.000015
0.000011
0.000001
-0.000003
0.000002
-0.000000
-0.000008
-0.000019
-0.000006
-0.000002
0.000016
0.000012
-0.000002
0.000005
-0.000001
-0.000001
-0.000019
-0.000003
-0.000000
-0.000001
-0.000008
-0.000007
-0.000008
-0.000019
-0.000002
-0.000002
-0.000002
-0.000007
-0.000012
-0.000003
-0.000001
0.000004
-0.000004
-0.000001
0.000001
0.000003
-0.000001
0.000002
-0.000015
0.000011
0.000008
-0.000001
-0.000003
-0.000010
0.000019
-0.000010
0.000003
-0.000014
-0.000015
-0.000002
0.000015
-0.000005
0.000004
-0.000002
0.000004
-0.000003
-0.000004
0.000003
0.000001
0.000002
-0.000005
0.000008
0.000008
-0.000004
0.000003
-0.000006
0.000012
-0.000003
0.000002
-0.000000
-0.000009
-0.000002
-0.000004
-0.000003
-0.000005
-0.000002
-0.000008
-0.000005
0.000009
0.000002
0.000003
0.000001
-0.000003
-0.000005
-0.000009
-0.000001
0.000005
-0.000001
0.000005
-0.000007
0.000003
-0.000013
-0.000003
0.000007
-0.000003
0.000002
0.000002
0.000002
-0.000003
0.000002
0.000003
-0.000002
-0.000002
0.000001
-0.000004
0.000008
0.000002
-0.000002
0.000018
0.000002
-0.000008
-0.000016
-0.000002
-0.000003
-0.000008
0.000004
0.000009
-0.000012
0.000012
-0.000007
0.000005
0.000019
0.000010
0.000019
0.000003
0.000005
-0.000001
-0.000003
0.000015
0.000015
-0.000015
-0.000015
0.000008
-0.000004
-0.000010
0.000002
0.000003
0.000003
0.000003
0.000004
0.000002
0.000002
0.000005
0.000001
0.000010
0.000002
-0.000018
0.000013
0.000015
0.000003
-0.000007
0.000003
-0.000002
-0.000002
0.000003
0.000014
-0.000008
-0.000003
-0.000018
0.000000
0.000000
0.000003
0.000000
0.000001
0.000015
0.000000
-0.000004
0.000008
0.000005
0.000002
-0.000008
-0.000015
0.000000
-0.000000
0.000011
0.000002
-0.000012
0.000019
0.000002
-0.000001
0.000005
0.000008
-0.000013
0.000005
-0.000006
-0.000002
0.000013
0.000010
0.000014
-0.000010
-0.000011
0.000003
0.000015
0.000003
0.000002
-0.000003
-0.000001
-0.000016
-0.000005
-0.000000
0.000007
-0.000000
0.000002
-0.000014
0.000003
-0.000011
-0.000003
-0.000002
0.000001
-0.000003
0.000003
0.000007
-0.000003
0.000019
0.000009
-0.000003
0.000011
-0.000004
0.000012
0.000016
-0.000001
-0.000003
0.000003
-0.000004
0.000020
0.000000
0.000000
-0.000000
-0.000003
0.000001
-0.000001
-0.000003
0.000013
0.000000
0.000001
0.000001
-0.000002
-0.000003
-0.000010
-0.000002
-0.000003
0.000008
-0.000016
0.000002
0.000003
0.000004
0.000003
0.000003
0.000002
-0.000020
-0.000003
0.000001
-0.000006
0.000000
0.000004
0.000003
-0.000014
0.000003
0.000014
0.000001
-0.000002
-0.000014
0.000001
-0.000003
-0.000004
-0.000000
0.000015
-0.000021
0.000008
0.000000
-0.000015
0.000003
0.000020
-0.000003
0.000002
-0.000005
0.000006
0.000008
0.000002
0.000002
-0.000001
-0.000003
0.000001
-0.000002
