# vtk DataFile Version 2.0
SquarePlate_mix
ASCII
DATASET POLYDATA
POINTS 1681 float
0.000000 0.000000 0.000000
1.000000 0.000000 0.000000
1.000000 1.000000 0.000000
0.000000 1.000000 0.000000
0.025000 0.000000 0.000000
0.050000 0.000000 0.000000
0.075000 0.000000 0.000000
0.100000 0.000000 0.000000
0.125000 0.000000 0.000000
0.150000 0.000000 0.000000
0.175000 0.000000 0.000000
0.200000 0.000000 0.000000
0.225000 0.000000 0.000000
0.250000 0.000000 0.000000
0.275000 0.000000 0.000000
0.300000 0.000000 0.000000
0.325000 0.000000 0.000000
0.350000 0.000000 0.000000
0.375000 0.000000 0.000000
0.400000 0.000000 0.000000
0.425000 0.000000 0.000000
0.450000 0.000000 0.000000
0.475000 0.000000 0.000000
0.500000 0.000000 0.000000
0.525000 0.000000 0.000000
0.550000 0.000000 0.000000
0.575000 0.000000 0.000000
0.600000 0.000000 0.000000
0.625000 0.000000 0.000000
0.650000 0.000000 0.000000
0.675000 0.000000 0.000000
0.700000 0.000000 0.000000
0.725000 0.000000 0.000000
0.750000 0.000000 0.000000
0.775000 0.000000 0.000000
0.800000 0.000000 0.000000
0.825000 0.000000 0.000000
0.850000 0.000000 0.000000
0.875000 0.000000 0.000000
0.900000 0.000000 0.000000
0.925000 0.000000 0.000000
0.950000 0.000000 0.000000
0.975000 0.000000 0.000000
1.000000 0.025000 0.000000
1.000000 0.050000 0.000000
1.000000 0.075000 0.000000
1.000000 0.100000 0.000000
1.000000 0.125000 0.000000
1.000000 0.150000 0.000000
1.000000 0.175000 0.000000
1.000000 0.200000 0.000000
1.000000 0.225000 0.000000
1.000000 0.250000 0.000000
1.000000 0.275000 0.000000
1.000000 0.300000 0.000000
1.000000 0.325000 0.000000
1.000000 0.350000 0.000000
1.000000 0.375000 0.000000
1.000000 0.400000 0.000000
1.000000 0.425000 0.000000
1.000000 0.450000 0.000000
1.000000 0.475000 0.000000
1.000000 0.500000 0.000000
1.000000 0.525000 0.000000
1.000000 0.550000 0.000000
1.000000 0.575000 0.000000
1.000000 0.600000 0.000000
1.000000 0.625000 0.000000
1.000000 0.650000 0.000000
1.000000 0.675000 0.000000
1.000000 0.700000 0.000000
1.000000 0.725000 0.000000
1.000000 0.750000 0.000000
1.000000 0.775000 0.000000
1.000000 0.800000 0.000000
1.000000 0.825000 0.000000
1.000000 0.850000 0.000000
1.000000 0.875000 0.000000
1.000000 0.900000 0.000000
1.000000 0.925000 0.000000
1.000000 0.950000 0.000000
1.000000 0.975000 0.000000
0.975000 1.000000 0.000000
0.950000 1.000000 0.000000
0.925000 1.000000 0.000000
0.900000 1.000000 0.000000
0.875000 1.000000 0.000000
0.850000 1.000000 0.000000
0.825000 1.000000 0.000000
0.800000 1.000000 0.000000
0.775000 1.000000 0.000000
0.750000 1.000000 0.000000
0.725000 1.000000 0.000000
0.700000 1.000000 0.000000
0.675000 1.000000 0.000000
0.650000 1.000000 0.000000
0.625000 1.000000 0.000000
0.600000 1.000000 0.000000
0.575000 1.000000 0.000000
0.550000 1.000000 0.000000
0.525000 1.000000 0.000000
0.500000 1.000000 0.000000
0.475000 1.000000 0.000000
0.450000 1.000000 0.000000
0.425000 1.000000 0.000000
0.400000 1.000000 0.000000
0.375000 1.000000 0.000000
0.350000 1.000000 0.000000
0.325000 1.000000 0.000000
0.300000 1.000000 0.000000
0.275000 1.000000 0.000000
0.250000 1.000000 0.000000
0.225000 1.000000 0.000000
0.200000 1.000000 0.000000
0.175000 1.000000 0.000000
0.150000 1.000000 0.000000
0.125000 1.000000 0.000000
0.100000 1.000000 0.000000
0.075000 1.000000 0.000000
0.050000 1.000000 0.000000
0.025000 1.000000 0.000000
0.000000 0.975000 0.000000
0.000000 0.950000 0.000000
0.000000 0.925000 0.000000
0.000000 0.900000 0.000000
0.000000 0.875000 0.000000
0.000000 0.850000 0.000000
0.000000 0.825000 0.000000
0.000000 0.800000 0.000000
0.000000 0.775000 0.000000
0.000000 0.750000 0.000000
0.000000 0.725000 0.000000
0.000000 0.700000 0.000000
0.000000 0.675000 0.000000
0.000000 0.650000 0.000000
0.000000 0.625000 0.000000
0.000000 0.600000 0.000000
0.000000 0.575000 0.000000
0.000000 0.550000 0.000000
0.000000 0.525000 0.000000
0.000000 0.500000 0.000000
0.000000 0.475000 0.000000
0.000000 0.450000 0.000000
0.000000 0.425000 0.000000
0.000000 0.400000 0.000000
0.000000 0.375000 0.000000
0.000000 0.350000 0.000000
0.000000 0.325000 0.000000
0.000000 0.300000 0.000000
0.000000 0.275000 0.000000
0.000000 0.250000 0.000000
0.000000 0.225000 0.000000
0.000000 0.200000 0.000000
0.000000 0.175000 0.000000
0.000000 0.150000 0.000000
0.000000 0.125000 0.000000
0.000000 0.100000 0.000000
0.000000 0.075000 0.000000
0.000000 0.050000 0.000000
0.000000 0.025000 0.000000
0.025000 0.025000 0.000000
0.025000 0.050000 0.000000
0.025000 0.075000 0.000000
0.025000 0.100000 0.000000
0.025000 0.125000 0.000000
0.025000 0.150000 0.000000
0.025000 0.175000 0.000000
0.025000 0.200000 0.000000
0.025000 0.225000 0.000000
0.025000 0.250000 0.000000
0.025000 0.275000 0.000000
0.025000 0.300000 0.000000
0.025000 0.325000 0.000000
0.025000 0.350000 0.000000
0.025000 0.375000 0.000000
0.025000 0.400000 0.000000
0.025000 0.425000 0.000000
0.025000 0.450000 0.000000
0.025000 0.475000 0.000000
0.025000 0.500000 0.000000
0.025000 0.525000 0.000000
0.025000 0.550000 0.000000
0.025000 0.575000 0.000000
0.025000 0.600000 0.000000
0.025000 0.625000 0.000000
0.025000 0.650000 0.000000
0.025000 0.675000 0.000000
0.025000 0.700000 0.000000
0.025000 0.725000 0.000000
0.025000 0.750000 0.000000
0.025000 0.775000 0.000000
0.025000 0.800000 0.000000
0.025000 0.825000 0.000000
0.025000 0.850000 0.000000
0.025000 0.875000 0.000000
0.025000 0.900000 0.000000
0.025000 0.925000 0.000000
0.025000 0.950000 0.000000
0.025000 0.975000 0.000000
0.050000 0.025000 0.000000
0.050000 0.050000 0.000000
0.050000 0.075000 0.000000
0.050000 0.100000 0.000000
0.050000 0.125000 0.000000
0.050000 0.150000 0.000000
0.050000 0.175000 0.000000
0.050000 0.200000 0.000000
0.050000 0.225000 0.000000
0.050000 0.250000 0.000000
0.050000 0.275000 0.000000
0.050000 0.300000 0.000000
0.050000 0.325000 0.000000
0.050000 0.350000 0.000000
0.050000 0.375000 0.000000
0.050000 0.400000 0.000000
0.050000 0.425000 0.000000
0.050000 0.450000 0.000000
0.050000 0.475000 0.000000
0.050000 0.500000 0.000000
0.050000 0.525000 0.000000
0.050000 0.550000 0.000000
0.050000 0.575000 0.000000
0.050000 0.600000 0.000000
0.050000 0.625000 0.000000
0.050000 0.650000 0.000000
0.050000 0.675000 0.000000
0.050000 0.700000 0.000000
0.050000 0.725000 0.000000
0.050000 0.750000 0.000000
0.050000 0.775000 0.000000
0.050000 0.800000 0.000000
0.050000 0.825000 0.000000
0.050000 0.850000 0.000000
0.050000 0.875000 0.000000
0.050000 0.900000 0.000000
0.050000 0.925000 0.000000
0.050000 0.950000 0.000000
0.050000 0.975000 0.000000
0.075000 0.025000 0.000000
0.075000 0.050000 0.000000
0.075000 0.075000 0.000000
0.075000 0.100000 0.000000
0.075000 0.125000 0.000000
0.075000 0.150000 0.000000
0.075000 0.175000 0.000000
0.075000 0.200000 0.000000
0.075000 0.225000 0.000000
0.075000 0.250000 0.000000
0.075000 0.275000 0.000000
0.075000 0.300000 0.000000
0.075000 0.325000 0.000000
0.075000 0.350000 0.000000
0.075000 0.375000 0.000000
0.075000 0.400000 0.000000
0.075000 0.425000 0.000000
0.075000 0.450000 0.000000
0.075000 0.475000 0.000000
0.075000 0.500000 0.000000
0.075000 0.525000 0.000000
0.075000 0.550000 0.000000
0.075000 0.575000 0.000000
0.075000 0.600000 0.000000
0.075000 0.625000 0.000000
0.075000 0.650000 0.000000
0.075000 0.675000 0.000000
0.075000 0.700000 0.000000
0.075000 0.725000 0.000000
0.075000 0.750000 0.000000
0.075000 0.775000 0.000000
0.075000 0.800000 0.000000
0.075000 0.825000 0.000000
0.075000 0.850000 0.000000
0.075000 0.875000 0.000000
0.075000 0.900000 0.000000
0.075000 0.925000 0.000000
0.075000 0.950000 0.000000
0.075000 0.975000 0.000000
0.100000 0.025000 0.000000
0.100000 0.050000 0.000000
0.100000 0.075000 0.000000
0.100000 0.100000 0.000000
0.100000 0.125000 0.000000
0.100000 0.150000 0.000000
0.100000 0.175000 0.000000
0.100000 0.200000 0.000000
0.100000 0.225000 0.000000
0.100000 0.250000 0.000000
0.100000 0.275000 0.000000
0.100000 0.300000 0.000000
0.100000 0.325000 0.000000
0.100000 0.350000 0.000000
0.100000 0.375000 0.000000
0.100000 0.400000 0.000000
0.100000 0.425000 0.000000
0.100000 0.450000 0.000000
0.100000 0.475000 0.000000
0.100000 0.500000 0.000000
0.100000 0.525000 0.000000
0.100000 0.550000 0.000000
0.100000 0.575000 0.000000
0.100000 0.600000 0.000000
0.100000 0.625000 0.000000
0.100000 0.650000 0.000000
0.100000 0.675000 0.000000
0.100000 0.700000 0.000000
0.100000 0.725000 0.000000
0.100000 0.750000 0.000000
0.100000 0.775000 0.000000
0.100000 0.800000 0.000000
0.100000 0.825000 0.000000
0.100000 0.850000 0.000000
0.100000 0.875000 0.000000
0.100000 0.900000 0.000000
0.100000 0.925000 0.000000
0.100000 0.950000 0.000000
0.100000 0.975000 0.000000
0.125000 0.025000 0.000000
0.125000 0.050000 0.000000
0.125000 0.075000 0.000000
0.125000 0.100000 0.000000
0.125000 0.125000 0.000000
0.125000 0.150000 0.000000
0.125000 0.175000 0.000000
0.125000 0.200000 0.000000
0.125000 0.225000 0.000000
0.125000 0.250000 0.000000
0.125000 0.275000 0.000000
0.125000 0.300000 0.000000
0.125000 0.325000 0.000000
0.125000 0.350000 0.000000
0.125000 0.375000 0.000000
0.125000 0.400000 0.000000
0.125000 0.425000 0.000000
0.125000 0.450000 0.000000
0.125000 0.475000 0.000000
0.125000 0.500000 0.000000
0.125000 0.525000 0.000000
0.125000 0.550000 0.000000
0.125000 0.575000 0.000000
0.125000 0.600000 0.000000
0.125000 0.625000 0.000000
0.125000 0.650000 0.000000
0.125000 0.675000 0.000000
0.125000 0.700000 0.000000
0.125000 0.725000 0.000000
0.125000 0.750000 0.000000
0.125000 0.775000 0.000000
0.125000 0.800000 0.000000
0.125000 0.825000 0.000000
0.125000 0.850000 0.000000
0.125000 0.875000 0.000000
0.125000 0.900000 0.000000
0.125000 0.925000 0.000000
0.125000 0.950000 0.000000
0.125000 0.975000 0.000000
0.150000 0.025000 0.000000
0.150000 0.050000 0.000000
0.150000 0.075000 0.000000
0.150000 0.100000 0.000000
0.150000 0.125000 0.000000
0.150000 0.150000 0.000000
0.150000 0.175000 0.000000
0.150000 0.200000 0.000000
0.150000 0.225000 0.000000
0.150000 0.250000 0.000000
0.150000 0.275000 0.000000
0.150000 0.300000 0.000000
[...]
CELL_DATA 3200
SCALARS PRESSURE float 1
LOOKUP_TABLE default
0.000000
-0.000088
-0.000004
0.000303
-0.000008
-0.000395
0.000010
0.000247
-0.000013
-0.000039
-0.000013
0.000020
0.000019
-0.000292
0.000003
0.000638
-0.000021
-0.001262
-0.000026
0.002014
-0.000017
-0.002070
-0.000024
0.001824
-0.000021
-0.001481
-0.000000
0.000648
-0.000004
0.000161
-0.000008
-0.000477
-0.000013
0.000603
-0.000011
-0.000635
0.000004
0.000596
-0.000014
-0.000600
-0.000011
0.000462
0.000024
-0.000160
0.000022
0.000012
0.000001
0.000014
0.000014
-0.000260
-0.000003
0.000361
-0.000008
-0.000773
0.000035
0.001526
0.000012
-0.001983
-0.000022
0.002222
-0.000006
-0.002242
0.000011
0.001804
0.000025
-0.001240
0.000014
0.000556
-0.000008
-0.000208
-0.000003
0.000014
0.000003
0.000133
-0.000011
-0.000037
-0.000004
-0.000025
0.000015
-0.000011
-0.000088
0.000283
0.000298
-0.000946
-0.000408
0.000765
0.000224
0.000900
-0.000071
-0.002340
-0.000015
0.002229
-0.000350
-0.000038
0.000564
-0.002225
-0.001301
0.004904
0.002000
-0.007292
-0.002101
0.006282
0.001758
-0.004352
-0.001564
0.003276
0.000587
-0.001059
0.000128
0.000548
-0.000498
-0.001532
0.000567
0.001804
-0.000667
-0.000175
0.000583
-0.001753
-0.000620
0.003115
0.000447
-0.002653
-0.000173
0.000596
0.000009
0.001065
0.000053
-0.002315
-0.000201
0.004077
0.000405
-0.004277
-0.000722
0.004744
0.001590
-0.006916
-0.001913
0.007587
0.002312
-0.008466
-0.002164
0.008560
0.001860
-0.006766
-0.001179
0.004066
0.000615
-0.001312
-0.000153
-0.000415
0.000070
0.001094
0.000188
-0.001411
-0.000008
0.000561
-0.000023
-0.000057
-0.000017
0.000064
0.000286
-0.000556
-0.000947
0.001838
0.000737
-0.001328
0.000872
-0.001914
-0.002399
0.004961
0.002122
-0.004629
-0.000139
0.001156
-0.002314
0.002215
0.004788
-0.004946
-0.007470
0.008469
0.006099
-0.004832
-0.004507
0.001906
0.003093
-0.000171
-0.001258
-0.001837
0.000364
0.001483
-0.001683
0.002125
0.001660
-0.002883
-0.000300
0.001169
-0.001809
0.001375
0.003098
-0.002269
-0.002654
-0.000342
0.000622
0.004809
0.001150
-0.008334
-0.002210
0.010515
0.004199
-0.013369
-0.004120
0.011227
0.004893
-0.009193
-0.006753
0.009474
0.007795
-0.009074
-0.008271
0.009073
0.008722
-0.009569
-0.006605
0.007265
0.004235
-0.004685
-0.001165
0.000570
-0.000315
0.001104
0.001151
-0.001949
-0.001346
0.001984
0.000613
-0.000200
-0.000046
-0.000508
0.000088
0.000003
-0.000551
0.000812
0.001828
-0.002868
-0.001367
0.003258
-0.001987
0.000315
0.004833
-0.004345
-0.004800
0.005770
0.000937
-0.002529
0.001890
0.001188
-0.005382
0.000803
0.007985
-0.003882
-0.005284
0.001302
0.001507
0.000870
-0.000581
0.000081
-0.002254
0.002007
0.001077
-0.000976
0.001774
-0.002166
-0.003163
0.002329
0.000964
0.001339
0.001240
-0.003927
-0.002347
0.002379
-0.000320
0.005094
0.004896
-0.012935
-0.008228
0.017390
0.010660
-0.019329
-0.013131
0.019876
0.011538
-0.014648
-0.008864
0.007843
0.009814
-0.006372
-0.008696
0.003366
0.009466
-0.002534
-0.009171
0.001040
0.007660
0.000708
-0.004317
-0.002541
0.000906
0.003525
0.001392
-0.002641
-0.001752
0.000285
0.002117
0.000635
-0.000106
-0.002779
-0.000452
0.002083
0.000029
-0.000295
0.000821
-0.000974
-0.002876
0.003657
0.003188
-0.005764
0.000181
0.003893
-0.004548
0.000918
0.005486
-0.003300
-0.002920
0.001181
0.000728
0.000452
0.000338
-0.001698
-0.004378
0.006307
0.000723
-0.001906
0.000261
0.000306
-0.000508
-0.000224
0.001461
-0.001688
-0.001503
0.002590
-0.002634
0.001080
0.001928
0.001011
0.001011
-0.005694
-0.004165
0.010498
0.002219
-0.006842
0.005054
-0.005297
-0.012859
0.017050
0.017580
-0.022303
-0.019034
0.021389
0.020241
-0.020487
-0.014221
0.010226
0.008352
-0.000991
-0.005809
-0.000672
0.003995
0.000581
-0.001895
-0.001246
0.001631
0.001225
0.001245
-0.005469
-0.002032
0.008001
0.004031
-0.008958
-0.002162
0.004318
0.000652
0.000302
0.000887
-0.003907
-0.002609
0.005942
0.002165
-0.003955
-0.000280
0.000641
-0.000951
0.000727
0.003672
-0.003289
-0.005788
0.006386
0.003774
-0.006021
0.000690
0.002360
-0.003641
0.001088
0.000711
0.002689
-0.000079
-0.004817
-0.002273
0.009063
0.005628
-0.012655
-0.002699
0.008210
-0.000533
-0.002159
-0.001074
0.001936
-0.002492
0.003787
0.001846
-0.003421
0.000394
-0.000599
0.000365
0.000682
-0.006235
0.006769
0.010129
-0.016221
-0.007097
0.016229
-0.005420
-0.003295
0.017096
-0.008532
-0.022075
0.013023
0.021752
-0.013777
-0.020032
0.014510
0.010816
-0.006380
-0.000256
-0.003856
0.000081
0.001973
0.001368
-0.001420
-0.000421
-0.002611
0.002048
0.003318
-0.004660
0.001454
0.008742
-0.010172
-0.008317
0.010746
0.004882
-0.005596
0.000784
-0.003199
-0.003515
0.009381
0.006228
-0.011524
-0.003803
0.006335
0.000685
-0.001101
0.000753
-0.000366
-0.003250
0.001522
0.006382
-0.003768
-0.006171
0.005139
0.002063
-0.002901
0.000660
-0.000007
0.002093
-0.001265
-0.005572
0.003542
0.008160
-0.005367
-0.013673
0.010259
0.007143
-0.005064
-0.003252
0.003484
0.000816
-0.003909
0.002707
0.001960
-0.004429
0.000391
-0.001520
0.005315
-0.000153
-0.004911
0.006071
-0.000309
-0.016725
0.010991
0.015896
-0.011212
-0.003460
0.002401
-0.008526
0.003686
0.013244
-0.004025
-0.013343
0.002294
0.015112
-0.004306
-0.005611
-0.002966
-0.002937
0.010511
0.002922
-0.011138
-0.000404
0.007260
-0.001508
-0.002300
0.004460
-0.005078
0.002592
-0.001152
-0.009131
0.009963
0.011634
-0.013108
-0.004834
0.006190
-0.002550
0.003877
0.009886
-0.013821
-0.011185
0.014605
0.006519
-0.007910
-0.001054
0.001431
-0.000320
-0.000064
0.001573
-0.000459
-0.003794
0.002670
0.004992
-0.006283
-0.003190
0.007020
-0.000439
-0.003564
-0.001877
0.003592
0.002736
-0.001442
-0.006343
0.002789
0.009163
-0.002382
-0.006234
0.000941
0.002268
0.001416
-0.005166
0.002173
0.000690
0.000793
-0.000828
0.000014
0.004218
-0.002954
-0.005861
0.007080
-0.001110
-0.005758
0.010361
0.001348
-0.011624
-0.000489
0.002237
0.004870
0.003738
-0.005062
-0.003750
0.001963
0.002782
0.000764
-0.003656
-0.003140
-0.002172
0.008971
0.011493
-0.017420
-0.009994
0.017583
0.008516
-0.016213
-0.001021
0.005760
-0.003836
0.004356
0.000059
-0.005425
0.011141
-0.004282
-0.012005
0.007145
0.007160
-0.005990
0.004677
-0.003491
-0.013222
0.011873
0.015007
-0.014556
-0.007685
0.007566
0.001500
-0.001397
0.000006
0.000253
-0.000343
-0.001532
0.002766
0.000963
-0.006308
0.003241
0.006768
-0.005393
-0.004041
0.002272
0.002898
-0.000062
-0.002353
0.000980
0.001685
-0.001786
-0.003661
0.004640
-0.000471
-0.002841
-0.000071
0.004977
0.000635
-0.006039
-0.000747
0.006879
-0.001444
-0.003871
-0.004277
0.007383
0.005916
-0.008400
-0.006775
0.010701
0.000500
-0.004908
-0.001099
0.002134
0.004530
0.000933
-0.005156
-0.003168
0.002126
0.004003
0.001189
-0.004822
-0.002475
0.004506
0.009829
-0.008872
-0.016340
0.011251
0.018872
-0.012527
-0.014808
0.006479
0.007218
0.001881
0.005839
-0.014426
-0.003969
0.012691
-0.002855
-0.005833
0.008504
-0.001512
-0.004817
0.000067
-0.002520
0.005767
0.012645
-0.015029
-0.013986
0.014881
0.007917
-0.007516
-0.001270
0.001317
0.000330
-0.000183
-0.001364
0.000492
0.001121
0.000879
0.003248
-0.007423
-0.005628
0.012823
0.001792
-0.009157
-0.000783
0.006308
0.000043
-0.003634
-0.002934
0.004858
0.003278
-0.003899
-0.004373
0.005398
0.003339
-0.004630
-0.007720
0.008444
0.005222
-0.006574
-0.005481
0.006865
0.005849
-0.006355
-0.009776
0.009414
0.009510
-0.009280
-0.005871
0.006612
0.001427
-0.001569
0.000450
-0.004245
-0.003417
0.007785
0.004069
-0.005865
-0.004411
0.003231
0.005248
-0.003794
-0.007893
0.004658
0.012417
-0.005953
-0.011188
0.002371
0.007973
0.000881
0.003522
-0.010002
-0.012688
0.015743
0.014399
-0.016415
-0.004205
0.007639
0.000012
-0.003866
0.001408
0.001478
0.006921
-0.006752
-0.014096
0.010109
0.015548
-0.009821
-0.007114
0.004275
0.001456
-0.000824
-0.000090
-0.000074
0.000676
-0.001520
0.001025
0.001783
-0.007381
0.003408
0.012704
-0.009049
-0.009507
0.006574
0.005707
-0.002903
-0.004480
0.002785
0.003765
-0.002421
-0.005204
0.005040
0.003925
-0.005229
-0.006242
0.009437
0.006752
-0.010414
-0.008311
0.012592
0.005103
-0.009039
-0.008063
0.010615
0.007875
-0.008339
-0.010623
0.008925
0.005496
-0.002891
-0.002404
-0.001668
-0.004777
0.010869
0.007556
-0.013649
-0.005782
0.009134
0.003608
-0.005687
-0.003119
0.005017
0.005604
-0.006247
-0.004774
0.002358
0.003763
0.001073
0.002433
-0.007457
-0.008346
0.009334
0.017487
-0.011974
-0.014658
0.006838
0.009330
-0.004980
-0.002262
0.002117
0.002960
-0.006726
-0.005453
0.009621
0.011143
-0.010793
-0.009108
0.006275
0.004708
-0.002915
-0.000660
0.000535
0.000067
-0.000188
-0.001238
0.001742
0.002062
-0.004600
0.003602
0.000711
-0.009046
0.005273
0.006297
-0.003597
-0.003483
0.001732
0.001894
-0.000926
-0.003596
0.003293
0.003636
-0.003710
-0.006840
0.007445
0.007678
-0.007604
-0.012266
0.010639
0.010701
-0.008446
-0.010899
0.009723
0.008810
-0.008373
-0.010010
0.009209
0.007422
-0.006035
-0.004224
0.003897
-0.002724
0.000623
0.010165
-0.006625
-0.014014
0.009854
0.009080
-0.005634
-0.005484
0.002877
0.005533
-0.004707
-0.005380
0.005983
0.003522
-0.005039
0.002482
-0.001427
-0.005870
0.003485
0.011051
-0.004832
-0.010144
-0.000872
0.008732
0.002376
-0.003107
-0.003688
0.003893
-0.001776
-0.005112
0.006678
0.011030
-0.012274
-0.009636
0.007123
0.007128
-0.002508
-0.002377
0.000008
0.000731
-0.000006
-0.000029
-0.000205
0.002092
-0.002062
-0.004235
0.005076
0.000978
-0.002607
0.005350
-0.004841
-0.003780
0.004467
0.001257
-0.002519
-0.001681
0.003502
0.002272
-0.003597
-0.005023
0.006681
0.005885
-0.007231
-0.009320
0.009028
0.008806
-0.004386
-0.010330
0.003297
0.007845
-0.000762
-0.010217
0.004400
0.007483
-0.002581
-0.007587
0.004265
0.002543
-0.004762
-0.000522
0.009644
-0.007529
-0.007703
0.009273
0.005871
-0.005871
-0.003872
0.002963
0.002578
-0.004273
0.000049
0.006747
-0.003429
-0.003990
0.000252
-0.000096
0.003931
0.005079
-0.008238
-0.003062
0.002938
0.000970
0.003615
0.004271
-0.012069
-0.001762
0.009676
0.000055
-0.004609
0.008339
-0.009401
-0.010784
0.013633
0.008385
-0.008624
-0.001549
0.000320
0.000594
0.000300
0.000176
-0.000130
-0.000041
-0.000333
-0.001653
0.001646
0.005532
-0.005789
-0.002224
0.002254
-0.004602
0.003516
0.004475
-0.002268
-0.002782
0.000410
0.002956
0.000102
-0.004441
0.001326
0.005564
-0.002237
-0.008585
0.004988
0.007420
-0.001574
-0.006206
-0.002561
0.001357
0.008489
-0.002741
-0.004468
0.002477
0.002297
-0.004436
0.002721
0.002551
-0.003848
-0.006230
0.011771
0.008381
-0.016385
-0.008732
0.017986
0.005175
-0.013291
-0.004219
0.008184
0.002583
-0.004720
0.000366
0.001830
-0.002825
-0.001159
0.001164
0.003180
0.005141
-0.008781
-0.006786
0.008602
0.004574
-0.004886
0.005382
-0.006057
-0.010202
0.009721
0.011581
-0.010208
-0.002758
-0.000646
-0.007649
0.009256
0.015219
-0.012436
-0.007310
0.002969
0.001336
0.001834
0.000950
-0.002277
0.000091
0.000472
-0.000123
0.000192
0.002190
-0.002524
-0.005141
0.003658
0.002835
0.000377
0.003913
-0.007277
-0.002124
0.006614
0.000277
-0.006134
-0.000377
0.006167
0.000508
-0.004996
-0.003293
0.007692
0.003676
-0.007792
-0.003179
0.009377
-0.004338
-0.002728
0.006615
-0.001928
-0.006420
0.004448
0.000357
-0.000950
0.000779
0.001109
-0.005725
0.002641
0.010120
-0.006710
-0.017789
0.014365
0.016841
-0.015673
-0.014137
0.013981
0.007662
-0.004816
-0.004900
-0.000393
0.001965
0.003248
-0.000694
-0.002946
0.003972
-0.001701
-0.007710
0.005193
0.009923
-0.009547
-0.003306
0.006653
-0.004230
-0.003559
0.011672
-0.002088
-0.008242
-0.001134
0.001309
0.006327
0.011137
-0.014930
-0.010752
0.013359
0.004387
-0.008072
0.002971
0.001039
-0.001508
-0.000069
0.000758
-0.000133
0.000420
-0.001058
-0.001938
0.002619
0.004376
-0.004506
0.001062
-0.001321
-0.006740
0.005515
0.006956
-0.003871
-0.006021
0.002529
0.005968
-0.000499
-0.005546
-0.002157
0.006834
0.004529
-0.008941
-0.005112
0.008011
0.005738
-0.004214
-0.006323
-0.003587
0.011847
0.002607
-0.009816
-0.002796
0.010788
-0.000704
-0.007153
0.000862
0.006254
-0.008343
0.000051
0.012901
-0.003398
-0.016990
0.008680
0.012896
-0.006373
-0.005608
-0.001393
-0.000862
0.006033
0.003155
-0.005241
-0.002673
0.001737
-0.001126
0.002475
0.006085
-0.005759
-0.008341
0.006400
0.008072
-0.006206
-0.001976
0.000216
-0.000363
0.002613
0.000692
-0.004460
0.008197
-0.001417
-0.013114
0.003822
0.015037
-0.006172
-0.006615
0.001463
0.002167
-0.000128
0.000652
-0.000830
0.000128
0.000234
-0.000828
0.000816
0.003200
-0.004255
-0.003725
0.004547
-0.000491
-0.000962
0.006265
-0.003631
-0.003290
0.001894
0.002855
-0.003601
-0.000468
0.002589
-0.002458
0.001904
0.003895
-0.005354
-0.006011
0.009031
0.004612
-0.007422
-0.007705
0.009706
0.010202
-0.010698
-0.011612
0.013253
0.009005
-0.011824
-0.008915
0.010578
0.004501
-0.003345
-0.001639
0.001654
-0.005001
0.004157
0.007222
-0.007575
-0.007575
0.009201
-0.002326
-0.001172
0.005382
-0.003686
-0.005550
0.007034
0.001743
-0.006994
0.002778
0.004845
-0.005095
-0.004241
0.007379
0.001180
-0.005039
-0.000310
0.001564
-0.001392
0.004173
-0.002029
-0.002763
0.000045
0.000304
-0.001198
0.005541
0.000069
-0.004548
-0.001530
0.002879
-0.000391
0.000982
-0.000842
-0.000088
-0.000274
0.000538
-0.000116
0.001081
-0.001389
-0.003603
0.002906
0.005437
-0.003338
0.000010
-0.001980
-0.002715
0.003724
0.002610
-0.003750
-0.003166
0.005346
0.002777
-0.006486
0.001832
0.003245
-0.005712
0.001677
0.008380
-0.006173
-0.008408
0.010472
0.008439
-0.012568
-0.012130
0.017579
0.011659
-0.019835
-0.013593
0.024434
0.008718
-0.020387
-0.005189
0.016939
-0.000151
-0.013936
0.002504
0.014015
-0.008987
-0.007835
0.007985
0.005392
-0.002183
-0.006196
-0.004460
0.009429
0.006518
-0.009743
-0.007224
0.010026
0.004914
-0.009217
-0.003861
0.009474
0.001889
-0.010396
0.000716
0.006990
-0.000092
-0.004078
-0.000513
0.000380
0.001682
0.000529
0.000496
-0.000084
0.001801
-0.006344
0.000109
0.004421
0.001074
-0.003477
0.000395
0.001144
0.000577
-0.000955
0.000208
0.000257
-0.001090
0.000671
0.003636
-0.003655
-0.002399
0.001889
-0.000929
0.000088
0.004761
-0.002068
-0.002840
-0.002243
0.006085
0.002428
-0.005972
-0.002071
0.003479
0.000024
0.001590
-0.001329
-0.006611
0.004754
0.009724
-0.006079
-0.013505
0.007663
0.016486
-0.008903
-0.021181
0.014390
0.022828
-0.017576
-0.022107
0.018442
0.015212
-0.013516
-0.015654
0.017112
0.012413
-0.017025
-0.009340
0.017540
0.003946
-0.011962
-0.007453
0.010003
0.008416
-0.006141
-0.010498
0.004845
0.009564
-0.002037
-0.009401
0.000692
0.009567
-0.002606
-0.009980
0.008368
0.007736
-0.010622
-0.003075
0.006588
0.001575
-0.003312
0.001915
-0.002520
0.001450
-0.000903
-0.004752
0.004086
0.005962
-0.004086
-0.002048
-0.000254
0.002323
-0.000807
-0.000186
0.000147
0.000540
-0.000244
0.000987
-0.001415
-0.002875
0.003596
0.002944
-0.005128
0.001267
0.002234
-0.000883
-0.004148
-0.001094
0.007289
0.003453
-0.011627
-0.001326
0.008073
0.000472
-0.002078
-0.001178
-0.000095
0.004600
-0.001446
-0.006509
0.000919
0.006941
0.001978
-0.009885
-0.002078
0.013237
0.002454
-0.018887
0.002097
0.016970
-0.000892
-0.015094
0.002086
0.015448
-0.004053
-0.018749
0.010041
0.015825
-0.011211
-0.013577
0.011378
0.008558
-0.003994
-0.007383
-0.000598
0.003851
0.007838
-0.002753
-0.014206
0.000278
0.021939
-0.002722
-0.024474
0.008521
0.015900
-0.010180
-0.006220
0.007296
0.000390
-0.002375
-0.001933
-0.001333
0.002560
0.000454
0.000685
0.005501
-0.006946
-0.002660
0.003171
0.001091
-0.001917
0.000308
0.000873
0.000927
-0.001888
0.000074
0.000569
-0.001123
0.000511
0.004422
-0.003285
-0.003959
0.001529
0.003533
-0.000311
-0.002827
-0.002363
0.008592
-0.001265
-0.010443
0.003016
0.009045
-0.001685
-0.001314
-0.005014
0.000407
0.004618
-0.001220
-0.001230
0.000854
0.002245
0.001507
-0.006017
-0.002894
0.010932
0.001477
-0.011831
0.000927
0.009524
-0.002293
-0.005043
0.000541
0.003284
-0.005744
0.003830
0.008268
-0.008671
-0.012899
0.015728
0.009788
-0.014052
-0.005520
0.006094
-0.001991
0.005370
0.006632
-0.014241
-0.015184
0.026439
0.021271
-0.035556
-0.024844
0.041068
0.015764
-0.030034
-0.006055
0.013900
0.000908
-0.003890
-0.001126
0.003985
0.003602
-0.008402
0.001913
0.004983
-0.005602
-0.002841
0.004553
0.002326
-0.000590
-0.003831
0.002034
0.000840
-0.001049
0.000459
0.000886
-0.000538
0.000808
-0.000907
-0.002487
0.001612
0.002686
-0.002199
0.001086
-0.002069
-0.000884
0.003954
0.000160
-0.007110
0.004360
0.005272
-0.000461
-0.008668
-0.004006
0.011296
0.005321
-0.010368
-0.000789
0.004172
0.002443
-0.003786
-0.006150
0.006602
0.010477
-0.011500
-0.012583
0.016105
0.008470
-0.014869
-0.006292
0.013556
0.001907
-0.007195
0.002283
0.003185
-0.010286
0.003529
0.014108
-0.005623
-0.015720
0.007042
0.004475
0.002771
0.003896
-0.010164
-0.015616
0.021930
0.025188
-0.030591
-0.036572
0.038774
0.040335
-0.039763
-0.030503
0.027518
0.013737
-0.008523
-0.003695
-0.002869
0.004455
0.000829
-0.007699
0.003118
0.005940
-0.003520
-0.001698
0.001296
0.003548
-0.001394
-0.002631
-0.001750
0.001881
0.001875
0.001195
-0.002614
-0.000266
0.000967
-0.000598
0.000142
0.002390
-0.002819
-0.001043
0.003245
-0.000593
-0.004487
0.005580
0.000878
-0.005517
0.002187
0.006805
-0.006836
-0.007284
0.007053
0.012477
-0.010518
-0.009413
0.008716
0.004849
-0.005521
-0.003402
0.003174
0.006757
-0.003416
-0.011621
0.005984
0.015631
-0.009137
-0.015645
0.011394
0.012552
-0.010441
-0.008423
0.008740
0.001762
-0.004523
0.001973
0.002374
-0.007315
0.002101
0.005261
-0.001111
0.001046
-0.001312
-0.011783
0.008599
0.020384
-0.012833
-0.032030
0.018795
0.037516
-0.019167
-0.040759
0.017836
0.026821
-0.006417
-0.008923
-0.006186
-0.002979
0.011549
0.000986
-0.005669
0.003563
-0.002020
-0.002812
0.004062
0.002205
-0.004751
-0.000337
-0.000603
-0.000677
0.004630
0.002828
-0.005593
-0.001885
0.002787
0.001270
-0.001078
0.000461
-0.000580
-0.001995
0.001456
0.004405
-0.006142
-0.003077
0.008068
0.002474
-0.008754
0.003868
0.000802
-0.005152
0.002670
0.008642
-0.007278
-0.009014
0.008844
0.010063
-0.011518
-0.004506
0.008277
0.003854
-0.007771
-0.003016
0.005908
0.006063
-0.005809
-0.009327
0.007249
0.010917
-0.008595
-0.011281
0.009927
0.007639
-0.006721
-0.005840
0.007532
0.000832
-0.006264
0.000440
0.010009
-0.002878
-0.010485
-0.003182
0.012788
0.006743
-0.010277
-0.014542
0.010578
0.017268
-0.007223
-0.020545
0.006352
0.016672
-0.002490
-0.007290
-0.001153
-0.006815
0.007776
0.011170
-0.006858
-0.005705
-0.001173
-0.001724
0.008328
0.004598
-0.010239
-0.004005
0.005586
0.000309
0.003584
0.005584
-0.011909
-0.004705
0.008670
0.003476
-0.004327
-0.000831
0.001263
-0.000273
-0.000300
0.002233
-0.001020
-0.005008
0.004086
0.009452
-0.010901
-0.007168
0.008267
0.002517
-0.003393
0.004451
-0.005254
-0.005572
0.008056
0.010417
-0.013358
-0.010114
0.014686
0.009477
-0.017181
-0.006800
0.017709
0.006524
-0.018698
-0.005542
0.014549
0.007271
-0.008836
-0.008883
0.004649
0.009326
-0.000818
-0.007566
-0.002475
0.006394
0.004142
-0.007649
-0.000500
0.008481
-0.006185
-0.012172
0.016944
0.010965
-0.018254
-0.012131
0.016470
0.008788
-0.006546
-0.008907
0.000597
0.004780
0.006960
-0.003895
-0.008618
-0.002324
0.010678
0.006863
-0.008043
-0.007474
0.002040
-0.001472
0.009703
0.008333
-0.017492
-0.009951
0.018219
0.006116
-0.010773
0.004313
-0.004133
-0.011080
0.011648
0.009460
-0.009101
-0.003742
0.003079
0.001479
-0.000918
-0.000044
-0.000303
-0.000288
-0.000047
0.005286
-0.006148
-0.009366
0.011427
0.009994
-0.012625
-0.001583
0.002956
-0.003374
0.003977
0.009878
-0.010679
-0.011667
0.011018
0.016257
-0.014888
-0.015773
0.015323
0.018906
-0.018616
-0.017794
0.016699
0.015122
-0.010485
-0.008619
0.000584
0.004517
0.003592
-0.001254
-0.005049
-0.003234
0.009687
0.003103
-0.010935
-0.001791
0.010707
-0.007705
0.000096
0.015331
-0.009183
-0.019927
0.013122
0.014642
-0.004505
-0.008483
-0.002739
-0.001302
0.010055
0.005172
-0.008291
-0.010296
0.006501
0.009224
-0.001374
-0.009147
-0.001230
0.001224
0.009512
0.009139
-0.018330
-0.017728
0.023604
0.018295
-0.020889
-0.010435
0.009165
-0.003549
0.004743
0.012386
-0.011363
-0.008356
0.007006
0.003672
-0.002497
-0.000673
0.000477
-0.000033
-0.000216
0.000705
-0.000245
-0.005019
0.003418
0.012875
-0.010253
-0.010953
0.006916
0.004755
-0.000613
0.005924
-0.007475
-0.008688
0.008204
0.012964
-0.010468
-0.013066