# vtk DataFile Version 2.0
SquarePlate_mix
ASCII
DATASET POLYDATA
POINTS 961 float
0.000000 0.000000 0.000000
1.000000 0.000000 0.000000
1.000000 1.000000 0.000000
0.000000 1.000000 0.000000
0.033333 0.000000 0.000000
0.066667 0.000000 0.000000
0.100000 0.000000 0.000000
0.133333 0.000000 0.000000
0.166667 0.000000 0.000000
0.200000 0.000000 0.000000
0.233333 0.000000 0.000000
0.266667 0.000000 0.000000
0.300000 0.000000 0.000000
0.333333 0.000000 0.000000
0.366667 0.000000 0.000000
0.400000 0.000000 0.000000
0.433333 0.000000 0.000000
0.466667 0.000000 0.000000
0.500000 0.000000 0.000000
0.533333 0.000000 0.000000
0.566667 0.000000 0.000000
0.600000 0.000000 0.000000
0.633333 0.000000 0.000000
0.666667 0.000000 0.000000
0.700000 0.000000 0.000000
0.733333 0.000000 0.000000
0.766667 0.000000 0.000000
0.800000 0.000000 0.000000
0.833333 0.000000 0.000000
0.866667 0.000000 0.000000
0.900000 0.000000 0.000000
0.933333 0.000000 0.000000
0.966667 0.000000 0.000000
1.000000 0.033333 0.000000
1.000000 0.066667 0.000000
1.000000 0.100000 0.000000
1.000000 0.133333 0.000000
1.000000 0.166667 0.000000
1.000000 0.200000 0.000000
1.000000 0.233333 0.000000
1.000000 0.266667 0.000000
1.000000 0.300000 0.000000
1.000000 0.333333 0.000000
1.000000 0.366667 0.000000
1.000000 0.400000 0.000000
1.000000 0.433333 0.000000
1.000000 0.466667 0.000000
1.000000 0.500000 0.000000
1.000000 0.533333 0.000000
1.000000 0.566667 0.000000
1.000000 0.600000 0.000000
1.000000 0.633333 0.000000
1.000000 0.666667 0.000000
1.000000 0.700000 0.000000
1.000000 0.733333 0.000000
1.000000 0.766667 0.000000
1.000000 0.800000 0.000000
1.000000 0.833333 0.000000
1.000000 0.866667 0.000000
1.000000 0.900000 0.000000
1.000000 0.933333 0.000000
1.000000 0.966667 0.000000
0.966667 1.000000 0.000000
0.933333 1.000000 0.000000
0.900000 1.000000 0.000000
0.866667 1.000000 0.000000
0.833333 1.000000 0.000000
0.800000 1.000000 0.000000
0.766667 1.000000 0.000000
0.733333 1.000000 0.000000
0.700000 1.000000 0.000000
0.666667 1.000000 0.000000
0.633333 1.000000 0.000000
0.600000 1.000000 0.000000
0.566667 1.000000 0.000000
0.533333 1.000000 0.000000
0.500000 1.000000 0.000000
0.466667 1.000000 0.000000
0.433333 1.000000 0.000000
0.400000 1.000000 0.000000
0.366667 1.000000 0.000000
0.333333 1.000000 0.000000
0.300000 1.000000 0.000000
0.266667 1.000000 0.000000
0.233333 1.000000 0.000000
0.200000 1.000000 0.000000
0.166667 1.000000 0.000000
0.133333 1.000000 0.000000
0.100000 1.000000 0.000000
0.066667 1.000000 0.000000
0.033333 1.000000 0.000000
0.000000 0.966667 0.000000
0.000000 0.933333 0.000000
0.000000 0.900000 0.000000
0.000000 0.866667 0.000000
0.000000 0.833333 0.000000
0.000000 0.800000 0.000000
0.000000 0.766667 0.000000
0.000000 0.733333 0.000000
0.000000 0.700000 0.000000
0.000000 0.666667 0.000000
0.000000 0.633333 0.000000
0.000000 0.600000 0.000000
0.000000 0.566667 0.000000
0.000000 0.533333 0.000000
0.000000 0.500000 0.000000
0.000000 0.466667 0.000000
0.000000 0.433333 0.000000
0.000000 0.400000 0.000000
0.000000 0.366667 0.000000
0.000000 0.333333 0.000000
0.000000 0.300000 0.000000
0.000000 0.266667 0.000000
0.000000 0.233333 0.000000
0.000000 0.200000 0.000000
0.000000 0.166667 0.000000
0.000000 0.133333 0.000000
0.000000 0.100000 0.000000
0.000000 0.066667 0.000000
0.000000 0.033333 0.000000
0.033333 0.033333 0.000000
0.033333 0.066667 0.000000
0.033333 0.100000 0.000000
0.033333 0.133333 0.000000
0.033333 0.166667 0.000000
0.033333 0.200000 0.000000
0.033333 0.233333 0.000000
0.033333 0.266667 0.000000
0.033333 0.300000 0.000000
0.033333 0.333333 0.000000
0.033333 0.366667 0.000000
0.033333 0.400000 0.000000
0.033333 0.433333 0.000000
0.033333 0.466667 0.000000
0.033333 0.500000 0.000000
0.033333 0.533333 0.000000
0.033333 0.566667 0.000000
0.033333 0.600000 0.000000
0.033333 0.633333 0.000000
0.033333 0.666667 0.000000
0.033333 0.700000 0.000000
0.033333 0.733333 0.000000
0.033333 0.766667 0.000000
0.033333 0.800000 0.000000
0.033333 0.833333 0.000000
0.033333 0.866667 0.000000
0.033333 0.900000 0.000000
0.033333 0.933333 0.000000
0.033333 0.966667 0.000000
0.066667 0.033333 0.000000
0.066667 0.066667 0.000000
0.066667 0.100000 0.000000
0.066667 0.133333 0.000000
0.066667 0.166667 0.000000
0.066667 0.200000 0.000000
0.066667 0.233333 0.000000
0.066667 0.266667 0.000000
0.066667 0.300000 0.000000
0.066667 0.333333 0.000000
0.066667 0.366667 0.000000
0.066667 0.400000 0.000000
0.066667 0.433333 0.000000
0.066667 0.466667 0.000000
0.066667 0.500000 0.000000
0.066667 0.533333 0.000000
0.066667 0.566667 0.000000
0.066667 0.600000 0.000000
0.066667 0.633333 0.000000
0.066667 0.666667 0.000000
0.066667 0.700000 0.000000
0.066667 0.733333 0.000000
0.066667 0.766667 0.000000
0.066667 0.800000 0.000000
0.066667 0.833333 0.000000
0.066667 0.866667 0.000000
0.066667 0.900000 0.000000
0.066667 0.933333 0.000000
0.066667 0.966667 0.000000
0.100000 0.033333 0.000000
0.100000 0.066667 0.000000
0.100000 0.100000 0.000000
0.100000 0.133333 0.000000
0.100000 0.166667 0.000000
0.100000 0.200000 0.000000
0.100000 0.233333 0.000000
0.100000 0.266667 0.000000
0.100000 0.300000 0.000000
0.100000 0.333333 0.000000
0.100000 0.366667 0.000000
0.100000 0.400000 0.000000
0.100000 0.433333 0.000000
0.100000 0.466667 0.000000
0.100000 0.500000 0.000000
0.100000 0.533333 0.000000
0.100000 0.566667 0.000000
0.100000 0.600000 0.000000
0.100000 0.633333 0.000000
0.100000 0.666667 0.000000
0.100000 0.700000 0.000000
0.100000 0.733333 0.000000
0.100000 0.766667 0.000000
0.100000 0.800000 0.000000
0.100000 0.833333 0.000000
0.100000 0.866667 0.000000
0.100000 0.900000 0.000000
0.100000 0.933333 0.000000
0.100000 0.966667 0.000000
0.133333 0.033333 0.000000
0.133333 0.066667 0.000000
0.133333 0.100000 0.000000
0.133333 0.133333 0.000000
0.133333 0.166667 0.000000
0.133333 0.200000 0.000000
0.133333 0.233333 0.000000
0.133333 0.266667 0.000000
0.133333 0.300000 0.000000
0.133333 0.333333 0.000000
0.133333 0.366667 0.000000
0.133333 0.400000 0.000000
0.133333 0.433333 0.000000
0.133333 0.466667 0.000000
0.133333 0.500000 0.000000
0.133333 0.533333 0.000000
0.133333 0.566667 0.000000
0.133333 0.600000 0.000000
0.133333 0.633333 0.000000
0.133333 0.666667 0.000000
0.133333 0.700000 0.000000
0.133333 0.733333 0.000000
0.133333 0.766667 0.000000
0.133333 0.800000 0.000000
0.133333 0.833333 0.000000
0.133333 0.866667 0.000000
0.133333 0.900000 0.000000
0.133333 0.933333 0.000000
0.133333 0.966667 0.000000
0.166667 0.033333 0.000000
0.166667 0.066667 0.000000
0.166667 0.100000 0.000000
0.166667 0.133333 0.000000
0.166667 0.166667 0.000000
0.166667 0.200000 0.000000
0.166667 0.233333 0.000000
0.166667 0.266667 0.000000
0.166667 0.300000 0.000000
0.166667 0.333333 0.000000
0.166667 0.366667 0.000000
0.166667 0.400000 0.000000
0.166667 0.433333 0.000000
0.166667 0.466667 0.000000
0.166667 0.500000 0.000000
0.166667 0.533333 0.000000
0.166667 0.566667 0.000000
0.166667 0.600000 0.000000
0.166667 0.633333 0.000000
0.166667 0.666667 0.000000
0.166667 0.700000 0.000000
0.166667 0.733333 0.000000
0.166667 0.766667 0.000000
0.166667 0.800000 0.000000
0.166667 0.833333 0.000000
0.166667 0.866667 0.000000
0.166667 0.900000 0.000000
0.166667 0.933333 0.000000
0.166667 0.966667 0.000000
0.200000 0.033333 0.000000
0.200000 0.066667 0.000000
0.200000 0.100000 0.000000
0.200000 0.133333 0.000000
0.200000 0.166667 0.000000
0.200000 0.200000 0.000000
0.200000 0.233333 0.000000
0.200000 0.266667 0.000000
0.200000 0.300000 0.000000
0.200000 0.333333 0.000000
0.200000 0.366667 0.000000
0.200000 0.400000 0.000000
0.200000 0.433333 0.000000
0.200000 0.466667 0.000000
0.200000 0.500000 0.000000
0.200000 0.533333 0.000000
0.200000 0.566667 0.000000
0.200000 0.600000 0.000000
0.200000 0.633333 0.000000
0.200000 0.666667 0.000000
0.200000 0.700000 0.000000
0.200000 0.733333 0.000000
0.200000 0.766667 0.000000
0.200000 0.800000 0.000000
0.200000 0.833333 0.000000
0.200000 0.866667 0.000000
0.200000 0.900000 0.000000
0.200000 0.933333 0.000000
0.200000 0.966667 0.000000
0.233333 0.033333 0.000000
0.233333 0.066667 0.000000
0.233333 0.100000 0.000000
0.233333 0.133333 0.000000
0.233333 0.166667 0.000000
0.233333 0.200000 0.000000
0.233333 0.233333 0.000000
0.233333 0.266667 0.000000
0.233333 0.300000 0.000000
0.233333 0.333333 0.000000
0.233333 0.366667 0.000000
0.233333 0.400000 0.000000
0.233333 0.433333 0.000000
0.233333 0.466667 0.000000
0.233333 0.500000 0.000000
0.233333 0.533333 0.000000
0.233333 0.566667 0.000000
0.233333 0.600000 0.000000
0.233333 0.633333 0.000000
0.233333 0.666667 0.000000
0.233333 0.700000 0.000000
0.233333 0.733333 0.000000
0.233333 0.766667 0.000000
0.233333 0.800000 0.000000
0.233333 0.833333 0.000000
0.233333 0.866667 0.000000
0.233333 0.900000 0.000000
0.233333 0.933333 0.000000
0.233333 0.966667 0.000000
0.266667 0.033333 0.000000
0.266667 0.066667 0.000000
0.266667 0.100000 0.000000
0.266667 0.133333 0.000000
0.266667 0.166667 0.000000
0.266667 0.200000 0.000000
0.266667 0.233333 0.000000
0.266667 0.266667 0.000000
0.266667 0.300000 0.000000
0.266667 0.333333 0.000000
0.266667 0.366667 0.000000
0.266667 0.400000 0.000000
0.266667 0.433333 0.000000
0.266667 0.466667 0.000000
0.266667 0.500000 0.000000
0.266667 0.533333 0.000000
0.266667 0.566667 0.000000
0.266667 0.600000 0.000000
0.266667 0.633333 0.000000
0.266667 0.666667 0.000000
0.266667 0.700000 0.000000
0.266667 0.733333 0.000000
0.266667 0.766667 0.000000
0.266667 0.800000 0.000000
0.266667 0.833333 0.000000
0.266667 0.866667 0.000000
0.266667 0.900000 0.000000
0.266667 0.933333 0.000000
0.266667 0.966667 0.000000
0.300000 0.033333 0.000000
0.300000 0.066667 0.000000
0.300000 0.100000 0.000000
0.300000 0.133333 0.000000
0.300000 0.166667 0.000000
0.300000 0.200000 0.000000
0.300000 0.233333 0.000000
0.300000 0.266667 0.000000
0.300000 0.300000 0.000000
0.300000 0.333333 0.000000
0.300000 0.366667 0.000000
0.300000 0.400000 0.000000
0.300000 0.433333 0.000000
0.300000 0.466667 0.000000
0.300000 0.500000 0.000000
[...]
CELL_DATA 1800
SCALARS PRESSURE float 1
LOOKUP_TABLE default
0.000000
-0.000001
0.000009
-0.000019
-0.000002
0.000039
-0.000036
0.000004
0.000028
-0.000043
0.000002
0.000053
-0.000034
-0.000032
0.000092
-0.000104
0.000013
0.000089
-0.000020
-0.000074
0.000039
0.000004
0.000030
-0.000062
-0.000026
0.000129
-0.000103
0.000093
-0.000112
0.000077
-0.000019
0.000032
-0.000120
0.000153
0.000017
-0.000170
0.000176
-0.000177
0.000132
-0.000036
-0.000033
0.000061
0.000015
-0.000101
-0.000056
0.000261
-0.000133
-0.000095
0.000100
-0.000050
0.000082
-0.000133
0.000053
0.000047
-0.000030
-0.000020
-0.000012
0.000069
-0.000050
0.000009
-0.000001
0.000019
0.000003
-0.000095
0.000042
0.000071
-0.000088
0.000181
-0.000027
-0.000359
0.000192
0.000280
-0.000219
0.000093
0.000031
-0.000438
0.000459
-0.000121
-0.000268
0.000383
0.000138
-0.000476
-0.000091
0.000477
0.000095
-0.000573
-0.000311
0.001290
-0.000455
-0.000672
0.000017
0.000882
-0.000396
-0.000133
0.000064
0.000073
0.000028
-0.000445
0.000478
-0.000538
0.000150
0.000537
-0.000262
-0.000428
0.000294
0.000457
-0.000617
0.000272
0.000352
-0.000711
0.000304
-0.000104
0.000253
-0.000189
0.000147
-0.000159
-0.000102
0.000415
-0.000215
-0.000006
0.000010
0.000030
-0.000105
0.000020
0.000309
-0.000504
0.000066
0.000600
-0.000570
0.000051
0.000435
-0.000621
-0.000251
0.001216
-0.000716
-0.000088
0.000183
-0.000347
0.000250
0.000441
-0.000703
0.000141
0.000248
0.000215
-0.000508
-0.000416
0.001178
-0.000189
-0.001197
0.001282
0.000819
-0.001893
-0.000202
0.001772
-0.000400
-0.000655
-0.000770
0.001802
-0.000436
-0.001008
0.000720
0.000032
0.000130
-0.000754
0.000389
0.000245
0.000300
-0.000361
-0.000321
0.000207
0.000287
-0.000356
0.000268
-0.000467
0.000441
-0.000573
0.000359
0.000260
-0.000198
-0.000023
0.000008
-0.000016
0.000146
-0.000081
-0.000356
0.000112
0.000519
-0.000427
-0.000396
0.000992
-0.000776
-0.000057
0.000955
-0.000505
-0.000720
0.001035
-0.000351
-0.000257
-0.000407
0.001024
-0.000055
-0.000704
-0.000393
0.001218
-0.000249
-0.000801
-0.000461
0.001428
0.000452
-0.001188
-0.001943
0.002870
0.001064
-0.002846
-0.000547
0.002201
0.000989
-0.002249
-0.000511
0.001638
0.000731
-0.001953
-0.000221
0.000766
0.001012
-0.000684
-0.000758
0.000603
0.001012
-0.001750
0.000484
0.000028
0.000282
-0.000072
-0.000065
-0.000340
0.000646
-0.000130
-0.000095
0.000025
-0.000003
0.000156
-0.000108
-0.000412
0.000274
0.000477
-0.000503
-0.000288
0.000660
0.000142
-0.000448
0.000197
-0.000814
0.000982
0.000257
-0.000820
-0.000747
0.001397
0.000126
-0.000392
-0.001582
0.002196
0.000134
-0.000641
-0.001175
0.000609
0.001515
-0.000702
-0.001703
0.001213
0.002550
-0.002051
-0.002991
0.003249
0.002424
-0.003978
-0.002136
0.004507
0.001570
-0.004070
-0.001617
0.003405
0.002076
-0.004164
-0.000224
0.002521
0.000996
-0.002689
-0.000903
0.002389
0.000717
-0.002225
0.000597
-0.000193
0.000740
-0.000790
0.000257
0.000126
0.000001
-0.000037
0.000027
0.000155
-0.000290
-0.000204
0.000484
-0.000067
-0.000360
0.000212
0.000061
-0.000142
-0.000465
0.000716
0.000279
0.000185
-0.001540
0.000512
0.001031
0.000376
-0.002162
0.000819
0.001015
0.000157
-0.001968
0.001029
-0.000082
0.001247
-0.001041
-0.001068
0.000798
0.001547
-0.001912
-0.001212
0.002946
0.000126
-0.003663
0.001277
0.004393
-0.002944
-0.003796
0.002920
0.004225
-0.003421
-0.003166
0.001978
0.003629
-0.002035
-0.002739
0.001591
0.003714
-0.003647
-0.001146
0.001431
0.000909
-0.000694
0.000156
-0.000851
0.000912
-0.000044
-0.000107
0.000050
-0.000020
0.000199
-0.000194
-0.000348
0.000261
0.000084
0.000038
-0.000049
-0.000209
0.000210
0.000101
0.000111
-0.001008
0.001445
-0.000582
-0.000302
-0.000206
0.000473
-0.000012
-0.000026
-0.001381
0.003252
-0.000686
-0.001497
-0.000051
0.001551
-0.001647
0.000691
0.001012
-0.000417
-0.001515
0.001721
0.000340
-0.001687
0.001551
-0.000281
-0.002275
0.001667
0.002812
-0.002581
-0.002436
0.001301
0.003512
-0.003471
-0.000871
0.001666
0.001885
-0.002103
-0.002118
0.001663
0.002399
-0.002581
0.000207
-0.000018
0.000374
-0.000683
0.000628
-0.000073
-0.000009
0.000019
0.000022
0.000115
0.000009
-0.000695
0.000732
-0.000096
-0.000301
0.000054
0.000176
-0.000267
-0.000608
0.001141
0.000191
0.000124
-0.001667
0.001150
-0.000190
0.001039
-0.001153
-0.000739
0.001526
0.000591
-0.002899
0.001672
-0.000228
0.001557
-0.000320
-0.001641
-0.001578
0.003557
0.001274
-0.003703
-0.001412
0.003677
0.000248
-0.003244
0.002591
-0.000259
-0.002023
0.001067
0.002528
-0.001953
-0.001887
0.000650
0.003641
-0.002490
-0.002219
0.002425
0.003122
-0.004255
-0.001386
0.002478
0.000994
-0.001659
0.000220
0.000114
0.000327
-0.000336
0.000281
-0.000018
0.000028
0.000253
-0.000373
-0.000293
0.000406
-0.000539
0.000387
0.000261
-0.000747
0.000481
0.001166
-0.001410
-0.001231
0.002296
0.000018
-0.001075
-0.000900
0.002099
-0.001519
0.000765
-0.001134
0.002033
-0.000183
-0.001103
-0.000065
0.001424
-0.003110
0.002376
0.002812
-0.002368
-0.004815
0.004483
0.003734
-0.004765
-0.002396
0.003478
0.000993
-0.002146
0.001786
-0.001498
-0.000613
0.000905
0.001717
-0.002207
-0.000373
0.000379
0.002672
-0.001513
-0.002893
0.000517
0.003653
-0.001279
-0.001069
-0.001286
0.001650
0.000330
-0.000069
-0.000652
0.000477
-0.000026
-0.000045
0.000435
-0.000225
-0.000976
0.000148
0.001345
0.000265
-0.002067
0.000510
0.001141
-0.001838
0.000760
0.001504
-0.000379
-0.002098
0.000982
0.000600
0.001301
-0.000829
-0.001191
0.000100
0.002096
-0.002627
0.001429
-0.000472
0.001090
0.001186
-0.002082
-0.003698
0.004546
0.003696
-0.005009
-0.004835
0.006926
0.003763
-0.006878
-0.001188
0.004047
-0.000211
-0.002622
0.002116
-0.000179
-0.001040
-0.000106
0.002401
-0.002395
-0.001186
0.003104
0.002203
-0.006284
0.000198
0.004045
-0.000440
-0.002712
0.002136
-0.000299
-0.000327
0.000083
0.000223
-0.000010
0.000072
0.000232
-0.000958
0.000298
0.001637
-0.002005
-0.001195
0.001903
0.000841
-0.001557
0.001158
-0.000045
-0.001864
0.001583
0.000249
0.000069
-0.000428
-0.000767
-0.002277
0.004471
0.000231
-0.002368
-0.000620
0.003022
-0.000557
-0.001228
-0.003750
0.004688
0.004015
-0.005028
-0.006164
0.008230
0.006473
-0.009627
-0.006292
0.009136
0.004177
-0.007451
-0.001720
0.004474
0.001278
-0.004528
0.000720
0.002314
-0.000342
-0.002911
0.003486
0.000265
-0.004411
0.000032
0.005943
-0.002559
-0.002203
0.000366
0.001909
-0.001607
0.000437
0.000174
0.000084
-0.000019
-0.000104
0.000251
0.000211
-0.000605
-0.001291
0.001406
0.002416
-0.002451
-0.001535
0.001366
0.000157
-0.000320
0.000894
-0.000178
-0.000588
0.000243
-0.001958
0.003794
0.003356
-0.006432
-0.004105
0.008985
0.001335
-0.006244
-0.002948
0.007362
0.002725
-0.005313
-0.005945
0.007008
0.006999
-0.007706
-0.010374
0.010262
0.009386
-0.009750
-0.007180
0.008242
0.005502
-0.007482
-0.003480
0.005902
0.003425
-0.006072
-0.001016
0.003407
0.000618
-0.001896
0.001710
-0.001928
-0.000540
0.000707
0.001306
-0.000774
0.000072
-0.000753
0.000957
-0.000080
0.000074
0.000022
0.000116
-0.000214
-0.000773
0.001183
0.001629
-0.003400
-0.001455
0.002317
0.001356
-0.000621
0.000525
-0.001793
-0.000578
0.002470
-0.000361
-0.001603
0.002702
-0.000794
-0.007571
0.006609
0.008007
-0.007643
-0.008557
0.009306
0.006388
-0.008527
-0.007530
0.010270
0.005760
-0.007510
-0.008611
0.009082
0.008585
-0.007904
-0.009490
0.007571
0.008065
-0.006948
-0.006725
0.005102
0.007289
-0.006950
-0.005301
0.006146
0.005008
-0.006991
-0.001702
0.004094
-0.000610
-0.001687
0.002449
-0.001510
-0.000123
-0.000124
0.000706
-0.000720
0.000702
-0.000554
0.000363
0.000003
-0.000139
-0.000151
0.001084
-0.000846
-0.002994
0.003199
0.003047
-0.003323
-0.000111
-0.001094
-0.000840
0.002028
0.002398
-0.002947
-0.001404
0.002338
-0.001500
0.001498
0.005640
-0.005109
-0.008748
0.008285
0.007802
-0.006388
-0.009762
0.008922
0.008544
-0.008124
-0.009293
0.008894
0.008187
-0.007625
-0.009538
0.008624
0.007081
-0.006209
-0.007015
0.005985
0.005583
-0.005066
-0.006117
0.006014
0.006769
-0.008225
-0.005643
0.008139
0.004126
-0.006730
-0.000207
0.001768
-0.000044
-0.000934
0.001026
-0.000683
0.000563
-0.000512
0.000458
-0.000233
0.000320
0.000000
0.000102
-0.000306
-0.000521
0.000418
0.003606
-0.004331
-0.002615
0.004183
-0.000547
-0.000489
0.003388
-0.003560
-0.002240
0.003626
0.002139
-0.003358
0.001907
-0.001632
-0.006629
0.008016
0.007963
-0.009710
-0.008414
0.011121
0.007343
-0.009937
-0.009417
0.012155
0.006328
-0.008162
-0.007845
0.006893
0.006944
-0.004756
-0.007047
0.004187
0.005053
-0.002557
-0.005297
0.001705
0.006592
-0.003648
-0.007781
0.005327
0.009391
-0.008601
-0.006524
0.007887
0.002911
-0.006088
0.000619
0.002111
0.000173
-0.001820
0.001073
-0.000122
0.000296
-0.000175
0.000126
0.000065
-0.000104
-0.000185
0.001194
-0.001159
-0.002953
0.001648
0.004730
-0.002541
-0.000400
-0.001517
-0.002389
0.003388
0.004149
-0.005664
-0.002871
0.005568
-0.000971
-0.002403
0.007655
-0.002446
-0.010577
0.005405
0.010350
-0.005407
-0.011654
0.007899
0.011298
-0.008635
-0.010265
0.009430
0.005607
-0.005029
-0.006073
0.005231
0.003069
-0.002115
-0.003156
0.002136
0.001182
-0.000101
-0.003021
0.000205
0.005540
-0.001869
-0.008226
0.004661
0.007909
-0.004982
-0.005195
0.002239
0.003599
-0.001689
-0.001276
0.000195
0.001145
-0.000756
0.000045
0.000076
0.000308
-0.000086
0.000064
0.000035
-0.000812
0.000138
0.003182
-0.003287
-0.001801
0.002076
-0.000636
0.000056
0.004610
-0.003694
-0.004424
0.004327
0.005786
-0.005292
-0.001007
-0.000770
-0.002668
0.006085
0.005387
-0.008160
-0.005675
0.008364
0.006216
-0.007448
-0.009433
0.009965
0.007063
-0.007355
-0.006322
0.006991
0.003646
-0.004340
-0.003615
0.003590
0.001379
-0.002435
-0.001109
0.003050
0.000227
-0.002703
-0.002045
0.003274
0.005031
-0.005417
-0.005288
0.005875
0.002786
-0.004411
-0.000590
0.001519
0.000764
-0.001221
0.000259
-0.000068
0.000579
-0.000129
-0.000039
0.000077
-0.000006
-0.000229
-0.000090
0.000971
-0.001851
-0.001577
0.003646
0.000995
0.000787
-0.004445
-0.002187
0.004060
0.005750
-0.007278
-0.004541
0.006837
0.000733
-0.004329
0.006978
-0.000931
-0.008091
0.002272
0.008290
-0.003810
-0.008525
0.005228
0.009009
-0.005120
-0.008904
0.005380
0.005012
-0.002351
-0.005981
0.003594
0.001815
0.000974
-0.003371
-0.000986
0.001899
0.002634
-0.002902
-0.002162
0.003182
0.001887
-0.006543
0.001642
0.006010
-0.001973
-0.004772
0.000823
0.002836
0.000038
-0.001106
-0.000938
0.001235
0.000160
-0.000161
-0.000221
0.000330
-0.000055
-0.000017
-0.000740
0.000881
0.000640
-0.000681
-0.001350
0.002318
-0.001244
-0.003674
0.002587
0.005956
-0.005399
-0.005457
0.004702
0.008057
-0.006405
-0.002793
0.001099
0.000123
0.002366
0.002862
-0.006284
-0.003005
0.007750
0.004588
-0.008465
-0.005947
0.010018
0.004161
-0.008403
-0.004010
0.009564
0.002303
-0.008993
-0.001261
0.009968
-0.001706
-0.007328
0.001111
0.007329
-0.003692
-0.004235
0.001659
0.003191
0.000165
-0.001812
-0.002675
0.003469
0.000738
-0.002513
0.000686
0.000585
-0.000528
-0.000424
0.001197
-0.000814
0.000131
0.000325
-0.000047
0.000001
-0.000040
-0.000501
0.000738
-0.000394
-0.000541
0.000071
0.000590
-0.000587
0.003298
-0.001844
-0.003726
0.002017
0.006914
-0.006009
-0.005573
0.006395
0.002768
-0.005710
0.003896
0.000640
-0.005300
0.001393
0.008127
-0.004773
-0.008719
0.006367
0.009409
-0.007464
-0.009242
0.007808
0.007601
-0.005621
-0.010650
0.007724
0.008056
-0.004584
-0.009204
0.004174
0.006227
-0.002627
-0.005986
0.004115
0.002833
-0.002284
-0.003754
0.003165
0.002499
-0.001050
-0.003245
0.000719
0.001301
0.000280
-0.000205
-0.000940
0.000417
0.000263
0.000236
-0.000162
0.000037
0.000011
-0.000008
-0.000456
0.000056
0.000945
0.001048
-0.003490
0.000478
0.003074
-0.001333
-0.003026
0.003670
0.000612
-0.004030
-0.001263
0.008571
-0.002799
-0.004541
0.001261
0.001947
-0.000621
0.002604
-0.003424
-0.003795
0.004638
0.006865
-0.007223
-0.008458
0.009968
0.007569
-0.010486
-0.006758
0.011297
0.005937
-0.009153
-0.006612
0.009500
0.002565
-0.005400
-0.003978
0.006181
0.001984
-0.004199
-0.002164
0.003611
0.001336
-0.001971
-0.002442
0.003386
-0.000427
-0.001256
0.000644
0.000341
-0.001073
0.000398
0.001141
-0.001402
0.000250
0.000540
-0.000072
-0.000059
-0.000014
-0.000809
0.001420
0.000161
-0.002671
-0.000305
0.004432
-0.001782
-0.002581
0.002410
0.002004
-0.003229
0.000664
0.001095
-0.000691
-0.002749
0.002943
0.000366
0.000182
-0.001238
-0.001917
0.001359
0.005090
-0.002877
-0.006578
0.003322
0.009331
-0.004724
-0.010792
0.006300
0.010361
-0.006733
-0.010892
0.008029
0.008020
-0.006436
-0.007608
0.006932
0.004949
-0.004562
-0.006545
0.006695
0.002852
-0.004110
-0.002938
0.003763
0.001845
-0.001899
-0.002180
0.002078
0.000223
-0.000946
0.000356
0.000671
-0.000875
-0.000197
0.000960
-0.000284
-0.000124
0.000078
0.000009
-0.000511
0.000351
0.000262
0.000379
-0.000832
-0.000703
0.000850
0.002987
-0.003308
-0.002304
0.003073
0.002346
-0.003600
-0.000160
0.001311
0.001977
-0.003290
-0.000117
0.001882
0.002144
-0.003325
-0.002498
0.003617
0.004217
-0.004803
-0.005667
0.006316
0.005968
-0.006027
-0.006726
0.006337
0.006311
-0.005143
-0.007311
0.006232
0.005371
-0.004909
-0.005888
0.005584
0.004335
-0.003125
-0.004937
0.003480
0.002487
-0.001484
-0.002810
0.002287
0.000764
-0.000634
-0.000852
0.000044
0.000539
-0.000238
0.000224
-0.000261
0.000036
0.000039
0.000173
-0.000063
-0.000037
-0.000374
0.000528
-0.000436
-0.000149
-0.000072
0.001967
-0.001106
-0.002766
0.001441
0.004680
-0.003070
-0.003605
0.002887
0.003399
-0.004216
-0.001183
0.002001
0.002710
-0.002832
-0.001726
0.001342
0.003458
-0.001580
-0.004453
0.001958
0.006031
-0.002811
-0.007014
0.003974
0.006081
-0.003916
-0.006553
0.004795
0.004741
-0.003115
-0.006044
0.004231
0.005400
-0.004625
-0.004764
0.004800
0.002195
-0.002485
-0.002652
0.003232
0.000910
-0.001642
-0.001318
0.001829
-0.000435
0.000105
-0.000012
-0.000178
-0.000039
0.000016
0.000273
-0.000028
-0.000097
0.000054
-0.000068
-0.000333
0.000406
-0.000162
0.000765
-0.001103
-0.000155
0.000725
0.002151
-0.002438
-0.001912
0.001316
0.003574
-0.002232
-0.003152
0.002201
0.003365
-0.003395
-0.001425
0.002041
0.002286
-0.003135
-0.001059
0.001994
0.002514
-0.002402
-0.003687
0.003618
0.003583
-0.003575
-0.004174
0.004248
0.003763
-0.004021
-0.003626
0.003942
0.002772
-0.002130
-0.005334
0.004165
0.003608
-0.002833
-0.003397
0.002920
0.001674
-0.001239
-0.002441
0.002706
0.000592
-0.001744
-0.000354
0.001260
-0.000515
-0.000238
0.000339
-0.000269
0.000118
-0.000030
0.000117
-0.000039
0.000026
-0.000489
0.000401
0.000210
0.000300
-0.001544
0.001601
0.000183
-0.001720
-0.000231
0.002847
-0.000476
-0.002632
0.000360
0.003149
-0.001224
-0.002246
0.000178
0.002586
-0.000406
-0.002242
0.000176
0.002207
0.000114
-0.002149
-0.000911
0.003417
0.000742
-0.004181
0.000143
0.004001
-0.000338
-0.004623
0.001305
0.003089
-0.000322
-0.003567
0.000615
0.003825
-0.000825
-0.004096
0.001552
0.002599
-0.000727
-0.002483
0.001477
0.001928
-0.001530
-0.002505
0.002640
0.000595
-0.001221
-0.000548
0.001031
0.000084
-0.000968
0.000373
0.000511
-0.000346
0.000050
-0.000005
-0.000523
0.001122
-0.000299
-0.000776
-0.000180
0.001364
-0.000564
-0.000193
0.000178
0.000032
-0.000539
0.000606
0.000594
-0.000678
-0.001039
0.000770
0.000577
0.000358
-0.001714
0.000605
0.000881
-0.000042
-0.000667
-0.000348
0.000939
-0.000228
-0.000228
-0.000004
0.000499
-0.000796
-0.000157
0.000578
0.000309
-0.000368
-0.000301
-0.000194
0.001413
-0.001039
-0.000867
0.000905
0.001094
-0.000873
-0.000857
0.000559
0.001515
-0.001798
-0.000748
0.002266
0.000112
-0.001893
0.000509
0.000749
0.000317
-0.000908
-0.000375
0.000626
0.000147
-0.000162
-0.000006
0.000008
0.000065
-0.000011
-0.000569
0.000772
-0.000118
-0.000266
-0.000313
0.000530
0.000031
-0.000043
-0.000385
0.000210
0.000804
-0.000606
-0.001000
0.001111
0.000548
-0.001304
-0.000295
0.001440
-0.000242
-0.000686
-0.000271
0.001064
0.000014
-0.000660
0.000238
-0.000029
0.000296
-0.000525
0.000215
0.000031
0.000273
-0.000775
0.000221
0.001017
-0.000734
-0.000733
0.000608
0.000468
-0.000215
-0.000660
0.000032
0.000962
-0.000065
-0.000932
0.000433
-0.000269
0.000153
0.000499
-0.000664
-0.000275
0.001133
-0.000788
-0.000334
0.000514
0.000103
-0.000176
0.000014
0.000006
0.000180
-0.000329
0.000150
-0.000017
-0.000265
0.000424
-0.000149
0.000027
-0.000114
0.000334
-0.000632
0.000523
0.000487
-0.001025
0.000031
0.000550
-0.000104
-0.000207
-0.000065
0.000363
-0.000099
-0.000103
-0.000260
0.000531
-0.000143
-0.000335
0.000339
-0.000015
-0.000071
-0.000421
0.000707
-0.000211
-0.000373
0.000154
0.000834
-0.001074
-0.000204
0.000839
-0.000104
-0.000350
0.000011
0.000502
-0.000256
-0.000256
0.000144
0.000192
-0.000288
0.000204
0.000570
-0.000823
-0.000355
0.000806
0.000178
-0.000557
-0.000035
0.000334
-0.000106
-0.000028
0.000005
-0.000005
0.000026
-0.000046
0.000065
-0.000077
0.000016
0.000081
-0.000171
0.000160
0.000073
-0.000160
-0.000098
0.000211
0.000022
-0.000164
0.000063
0.000032
-0.000051
0.000048
-0.000071
0.000110
-0.000025
-0.000093
0.000069
0.000040
-0.000158
0.000104
0.000230
-0.000336
-0.000124
0.000365
0.000128
-0.000435
-0.000034
0.000340
0.000064
-0.000396
0.000183
0.000107
-0.000217
0.000156
0.000097
-0.000182
-0.000069
0.000168
0.000071
-0.000157
-0.000119
0.000211
0.000118
-0.000285
-0.000028
0.000222
-0.000044
-0.000095
0.000020
0.000064
-0.000042
0.000005
0.000000
