# vtk DataFile Version 2.0
SquarePlate_mix
ASCII
DATASET POLYDATA
POINTS 1681 float
0.000000 0.000000 0.000000
1.000000 0.000000 0.000000
1.000000 1.000000 0.000000
0.000000 1.000000 0.000000
0.025000 0.000000 0.000000
0.050000 0.000000 0.000000
0.075000 0.000000 0.000000
0.100000 0.000000 0.000000
0.125000 0.000000 0.000000
0.150000 0.000000 0.000000
0.175000 0.000000 0.000000
0.200000 0.000000 0.000000
0.225000 0.000000 0.000000
0.250000 0.000000 0.000000
0.275000 0.000000 0.000000
0.300000 0.000000 0.000000
0.325000 0.000000 0.000000
0.350000 0.000000 0.000000
0.375000 0.000000 0.000000
0.400000 0.000000 0.000000
0.425000 0.000000 0.000000
0.450000 0.000000 0.000000
0.475000 0.000000 0.000000
0.500000 0.000000 0.000000
0.525000 0.000000 0.000000
0.550000 0.000000 0.000000
0.575000 0.000000 0.000000
0.600000 0.000000 0.000000
0.625000 0.000000 0.000000
0.650000 0.000000 0.000000
0.675000 0.000000 0.000000
0.700000 0.000000 0.000000
0.725000 0.000000 0.000000
0.750000 0.000000 0.000000
0.775000 0.000000 0.000000
0.800000 0.000000 0.000000
0.825000 0.000000 0.000000
0.850000 0.000000 0.000000
0.875000 0.000000 0.000000
0.900000 0.000000 0.000000
0.925000 0.000000 0.000000
0.950000 0.000000 0.000000
0.975000 0.000000 0.000000
1.000000 0.025000 0.000000
1.000000 0.050000 0.000000
1.000000 0.075000 0.000000
1.000000 0.100000 0.000000
1.000000 0.125000 0.000000
1.000000 0.150000 0.000000
1.000000 0.175000 0.000000
1.000000 0.200000 0.000000
1.000000 0.225000 0.000000
1.000000 0.250000 0.000000
1.000000 0.275000 0.000000
1.000000 0.300000 0.000000
1.000000 0.325000 0.000000
1.000000 0.350000 0.000000
1.000000 0.375000 0.000000
1.000000 0.400000 0.000000
1.000000 0.425000 0.000000
1.000000 0.450000 0.000000
1.000000 0.475000 0.000000
1.000000 0.500000 0.000000
1.000000 0.525000 0.000000
1.000000 0.550000 0.000000
1.000000 0.575000 0.000000
1.000000 0.600000 0.000000
1.000000 0.625000 0.000000
1.000000 0.650000 0.000000
1.000000 0.675000 0.000000
1.000000 0.700000 0.000000
1.000000 0.725000 0.000000
1.000000 0.750000 0.000000
1.000000 0.775000 0.000000
1.000000 0.800000 0.000000
1.000000 0.825000 0.000000
1.000000 0.850000 0.000000
1.000000 0.875000 0.000000
1.000000 0.900000 0.000000
1.000000 0.925000 0.000000
1.000000 0.950000 0.000000
1.000000 0.975000 0.000000
0.975000 1.000000 0.000000
0.950000 1.000000 0.000000
0.925000 1.000000 0.000000
0.900000 1.000000 0.000000
0.875000 1.000000 0.000000
0.850000 1.000000 0.000000
0.825000 1.000000 0.000000
0.800000 1.000000 0.000000
0.775000 1.000000 0.000000
0.750000 1.000000 0.000000
0.725000 1.000000 0.000000
0.700000 1.000000 0.000000
0.675000 1.000000 0.000000
0.650000 1.000000 0.000000
0.625000 1.000000 0.000000
0.600000 1.000000 0.000000
0.575000 1.000000 0.000000
0.550000 1.000000 0.000000
0.525000 1.000000 0.000000
0.500000 1.000000 0.000000
0.475000 1.000000 0.000000
0.450000 1.000000 0.000000
0.425000 1.000000 0.000000
0.400000 1.000000 0.000000
0.375000 1.000000 0.000000
0.350000 1.000000 0.000000
0.325000 1.000000 0.000000
0.300000 1.000000 0.000000
0.275000 1.000000 0.000000
0.250000 1.000000 0.000000
0.225000 1.000000 0.000000
0.200000 1.000000 0.000000
0.175000 1.000000 0.000000
0.150000 1.000000 0.000000
0.125000 1.000000 0.000000
0.100000 1.000000 0.000000
0.075000 1.000000 0.000000
0.050000 1.000000 0.000000
0.025000 1.000000 0.000000
0.000000 0.975000 0.000000
0.000000 0.950000 0.000000
0.000000 0.925000 0.000000
0.000000 0.900000 0.000000
0.000000 0.875000 0.000000
0.000000 0.850000 0.000000
0.000000 0.825000 0.000000
0.000000 0.800000 0.000000
0.000000 0.775000 0.000000
0.000000 0.750000 0.000000
0.000000 0.725000 0.000000
0.000000 0.700000 0.000000
0.000000 0.675000 0.000000
0.000000 0.650000 0.000000
0.000000 0.625000 0.000000
0.000000 0.600000 0.000000
0.000000 0.575000 0.000000
0.000000 0.550000 0.000000
0.000000 0.525000 0.000000
0.000000 0.500000 0.000000
0.000000 0.475000 0.000000
0.000000 0.450000 0.000000
0.000000 0.425000 0.000000
0.000000 0.400000 0.000000
0.000000 0.375000 0.000000
0.000000 0.350000 0.000000
0.000000 0.325000 0.000000
0.000000 0.300000 0.000000
0.000000 0.275000 0.000000
0.000000 0.250000 0.000000
0.000000 0.225000 0.000000
0.000000 0.200000 0.000000
0.000000 0.175000 0.000000
0.000000 0.150000 0.000000
0.000000 0.125000 0.000000
0.000000 0.100000 0.000000
0.000000 0.075000 0.000000
0.000000 0.050000 0.000000
0.000000 0.025000 0.000000
0.025000 0.025000 0.000000
0.025000 0.050000 0.000000
0.025000 0.075000 0.000000
0.025000 0.100000 0.000000
0.025000 0.125000 0.000000
0.025000 0.150000 0.000000
0.025000 0.175000 0.000000
0.025000 0.200000 0.000000
0.025000 0.225000 0.000000
0.025000 0.250000 0.000000
0.025000 0.275000 0.000000
0.025000 0.300000 0.000000
0.025000 0.325000 0.000000
0.025000 0.350000 0.000000
0.025000 0.375000 0.000000
0.025000 0.400000 0.000000
0.025000 0.425000 0.000000
0.025000 0.450000 0.000000
0.025000 0.475000 0.000000
0.025000 0.500000 0.000000
0.025000 0.525000 0.000000
0.025000 0.550000 0.000000
0.025000 0.575000 0.000000
0.025000 0.600000 0.000000
0.025000 0.625000 0.000000
0.025000 0.650000 0.000000
0.025000 0.675000 0.000000
0.025000 0.700000 0.000000
0.025000 0.725000 0.000000
0.025000 0.750000 0.000000
0.025000 0.775000 0.000000
0.025000 0.800000 0.000000
0.025000 0.825000 0.000000
0.025000 0.850000 0.000000
0.025000 0.875000 0.000000
0.025000 0.900000 0.000000
0.025000 0.925000 0.000000
0.025000 0.950000 0.000000
0.025000 0.975000 0.000000
0.050000 0.025000 0.000000
0.050000 0.050000 0.000000
0.050000 0.075000 0.000000
0.050000 0.100000 0.000000
0.050000 0.125000 0.000000
0.050000 0.150000 0.000000
0.050000 0.175000 0.000000
0.050000 0.200000 0.000000
0.050000 0.225000 0.000000
0.050000 0.250000 0.000000
0.050000 0.275000 0.000000
0.050000 0.300000 0.000000
0.050000 0.325000 0.000000
0.050000 0.350000 0.000000
0.050000 0.375000 0.000000
0.050000 0.400000 0.000000
0.050000 0.425000 0.000000
0.050000 0.450000 0.000000
0.050000 0.475000 0.000000
0.050000 0.500000 0.000000
0.050000 0.525000 0.000000
0.050000 0.550000 0.000000
0.050000 0.575000 0.000000
0.050000 0.600000 0.000000
0.050000 0.625000 0.000000
0.050000 0.650000 0.000000
0.050000 0.675000 0.000000
0.050000 0.700000 0.000000
0.050000 0.725000 0.000000
0.050000 0.750000 0.000000
0.050000 0.775000 0.000000
0.050000 0.800000 0.000000
0.050000 0.825000 0.000000
0.050000 0.850000 0.000000
0.050000 0.875000 0.000000
0.050000 0.900000 0.000000
0.050000 0.925000 0.000000
0.050000 0.950000 0.000000
0.050000 0.975000 0.000000
0.075000 0.025000 0.000000
0.075000 0.050000 0.000000
0.075000 0.075000 0.000000
0.075000 0.100000 0.000000
0.075000 0.125000 0.000000
0.075000 0.150000 0.000000
0.075000 0.175000 0.000000
0.075000 0.200000 0.000000
0.075000 0.225000 0.000000
0.075000 0.250000 0.000000
0.075000 0.275000 0.000000
0.075000 0.300000 0.000000
0.075000 0.325000 0.000000
0.075000 0.350000 0.000000
0.075000 0.375000 0.000000
0.075000 0.400000 0.000000
0.075000 0.425000 0.000000
0.075000 0.450000 0.000000
0.075000 0.475000 0.000000
0.075000 0.500000 0.000000
0.075000 0.525000 0.000000
0.075000 0.550000 0.000000
0.075000 0.575000 0.000000
0.075000 0.600000 0.000000
0.075000 0.625000 0.000000
0.075000 0.650000 0.000000
0.075000 0.675000 0.000000
0.075000 0.700000 0.000000
0.075000 0.725000 0.000000
0.075000 0.750000 0.000000
0.075000 0.775000 0.000000
0.075000 0.800000 0.000000
0.075000 0.825000 0.000000
0.075000 0.850000 0.000000
0.075000 0.875000 0.000000
0.075000 0.900000 0.000000
0.075000 0.925000 0.000000
0.075000 0.950000 0.000000
0.075000 0.975000 0.000000
0.100000 0.025000 0.000000
0.100000 0.050000 0.000000
0.100000 0.075000 0.000000
0.100000 0.100000 0.000000
0.100000 0.125000 0.000000
0.100000 0.150000 0.000000
0.100000 0.175000 0.000000
0.100000 0.200000 0.000000
0.100000 0.225000 0.000000
0.100000 0.250000 0.000000
0.100000 0.275000 0.000000
0.100000 0.300000 0.000000
0.100000 0.325000 0.000000
0.100000 0.350000 0.000000
0.100000 0.375000 0.000000
0.100000 0.400000 0.000000
0.100000 0.425000 0.000000
0.100000 0.450000 0.000000
0.100000 0.475000 0.000000
0.100000 0.500000 0.000000
0.100000 0.525000 0.000000
0.100000 0.550000 0.000000
0.100000 0.575000 0.000000
0.100000 0.600000 0.000000
0.100000 0.625000 0.000000
0.100000 0.650000 0.000000
0.100000 0.675000 0.000000
0.100000 0.700000 0.000000
0.100000 0.725000 0.000000
0.100000 0.750000 0.000000
0.100000 0.775000 0.000000
0.100000 0.800000 0.000000
0.100000 0.825000 0.000000
0.100000 0.850000 0.000000
0.100000 0.875000 0.000000
0.100000 0.900000 0.000000
0.100000 0.925000 0.000000
0.100000 0.950000 0.000000
0.100000 0.975000 0.000000
0.125000 0.025000 0.000000
0.125000 0.050000 0.000000
0.125000 0.075000 0.000000
0.125000 0.100000 0.000000
0.125000 0.125000 0.000000
0.125000 0.150000 0.000000
0.125000 0.175000 0.000000
0.125000 0.200000 0.000000
0.125000 0.225000 0.000000
0.125000 0.250000 0.000000
0.125000 0.275000 0.000000
0.125000 0.300000 0.000000
0.125000 0.325000 0.000000
0.125000 0.350000 0.000000
0.125000 0.375000 0.000000
0.125000 0.400000 0.000000
0.125000 0.425000 0.000000
0.125000 0.450000 0.000000
0.125000 0.475000 0.000000
0.125000 0.500000 0.000000
0.125000 0.525000 0.000000
0.125000 0.550000 0.000000
0.125000 0.575000 0.000000
0.125000 0.600000 0.000000
0.125000 0.625000 0.000000
0.125000 0.650000 0.000000
0.125000 0.675000 0.000000
0.125000 0.700000 0.000000
0.125000 0.725000 0.000000
0.125000 0.750000 0.000000
0.125000 0.775000 0.000000
0.125000 0.800000 0.000000
0.125000 0.825000 0.000000
0.125000 0.850000 0.000000
0.125000 0.875000 0.000000
0.125000 0.900000 0.000000
0.125000 0.925000 0.000000
0.125000 0.950000 0.000000
0.125000 0.975000 0.000000
0.150000 0.025000 0.000000
0.150000 0.050000 0.000000
0.150000 0.075000 0.000000
0.150000 0.100000 0.000000
0.150000 0.125000 0.000000
0.150000 0.150000 0.000000
0.150000 0.175000 0.000000
0.150000 0.200000 0.000000
0.150000 0.225000 0.000000
0.150000 0.250000 0.000000
0.150000 0.275000 0.000000
0.150000 0.300000 0.000000
[...]
CELL_DATA 3200
SCALARS PRESSURE float 1
LOOKUP_TABLE default
-0.000000
-0.007652
-0.007652
0.024085
0.023296
-0.015311
-0.015706
0.012324
0.011370
0.014290
0.010932
0.016353
0.012747
-0.009749
-0.014717
0.055363
0.047613
-0.063389
-0.068947
0.147577
0.138289
-0.047033
-0.060090
0.141470
0.126985
0.004470
-0.013997
0.069819
0.050198
0.093934
0.072225
0.053250
0.028132
0.117578
0.091193
0.062981
0.034950
0.123278
0.090817
0.066350
0.035720
0.110624
0.080750
0.091510
0.058388
0.079716
0.051483
0.083534
0.058215
0.055023
0.025729
0.085658
0.059994
0.002619
-0.020075
0.142936
0.121903
-0.055198
-0.072795
0.164335
0.147039
-0.065517
-0.079999
0.105987
0.095413
-0.025139
-0.035074
0.022717
0.015762
-0.000860
-0.004212
-0.001605
-0.003971
0.011481
0.009235
0.007859
0.007203
0.004402
0.003071
0.000381
0.000789
0.037801
0.038196
-0.084935
-0.083248
0.039461
0.041030
0.112171
0.114329
-0.099569
-0.100419
0.134899
0.133242
0.189100
0.181849
-0.066633
-0.079054
0.568026
0.551631
-0.332140
-0.356545
0.516497
0.490528
-0.052418
-0.085770
0.447702
0.402744
0.313517
0.264091
0.371610
0.314877
0.290401
0.227163
0.424953
0.360936
0.489917
0.418557
0.269380
0.190545
0.635498
0.559357
0.338933
0.257527
0.402883
0.317592
0.504093
0.427412
0.254578
0.175846
0.662299
0.585114
0.175447
0.106730
0.689820
0.621714
-0.180771
-0.237714
0.738019
0.689132
-0.361613
-0.411553
0.672623
0.635145
-0.210522
-0.239923
0.293250
0.265420
0.078588
0.058745
0.030839
0.017394
0.120536
0.110235
-0.056529
-0.060260
-0.001593
-0.001917
-0.008214
-0.010400
-0.000753
-0.000733
-0.084393
-0.082604
0.203348
0.204811
-0.006744
-0.003837
-0.251219
-0.245291
0.492092
0.494469
-0.145109
-0.141393
0.027644
0.028494
0.514507
0.508855
-0.389005
-0.404020
1.243715
1.220663
0.220576
0.196098
0.920408
0.884126
0.660066
0.610964
0.655154
0.596998
0.829060
0.756275
1.242033
1.160502
0.839528
0.753469
1.012373
0.914412
1.347818
1.240016
0.815114
0.704213
1.034894
0.919228
1.437689
1.321684
0.465835
0.347329
1.700983
1.579482
-0.094878
-0.205407
1.382600
1.273779
-0.065257
-0.173895
1.476377
1.387564
-0.241683
-0.325689
1.423062
1.342488
-0.464623
-0.526804
0.872328
0.818596
-0.073017
-0.117759
0.061124
0.029850
0.179603
0.154726
-0.161219
-0.181575
0.154764
0.145514
0.063455
0.060568
0.012754
0.009543
0.000262
-0.000015
0.139043
0.141953
-0.320375
-0.317402
0.167671
0.173863
0.407755
0.419583
-0.444818
-0.432184
0.663549
0.679773
0.392179
0.404320
0.429048
0.437389
1.136674
1.139185
0.075760
0.068072
0.835767
0.818796
0.881440
0.850688
1.049120
1.010230
1.572997
1.520894
1.457587
1.384506
1.142741
1.058895
1.734565
1.640504
1.826629
1.718022
1.333618
1.212479
1.817836
1.685503
2.339550
2.204988
0.548172
0.412041
3.063942
2.915478
0.015783
-0.133566
3.220858
3.080571
0.544593
0.401051
2.091162
1.955212
0.387428
0.268135
1.478376
1.360552
0.177345
0.072546
1.091012
1.002002
0.296733
0.216409
0.387477
0.324158
0.562330
0.516017
0.099319
0.064610
0.262831
0.233849
0.066700
0.050665
-0.206942
-0.211219
0.035388
0.029803
0.001113
0.000507
-0.176163
-0.171923
0.491718
0.498572
-0.379073
-0.366982
0.049719
0.068212
0.650543
0.674129
-0.136058
-0.107074
0.390113
0.414039
0.453139
0.479244
0.392304
0.417632
1.583032
1.596590
1.466019
1.466975
1.615229
1.602106
1.772616
1.749882
1.598355
1.562129
2.123314
2.066917
2.588713
2.514986
2.590292
2.498032
1.968372
1.863848
3.477178
3.358389
2.573446
2.432123
1.523743
1.376899
4.454546
4.305214
0.419691
0.256852
4.357490
4.191023
0.190222
0.023822
2.497340
2.328896
1.432538
1.276263
1.801791
1.651818
1.320447
1.174864
1.228110
1.103917
1.056896
0.943928
0.263601
0.162891
1.144216
1.061554
-0.244274
-0.311058
0.316809
0.271583
0.222919
0.188440
-0.298416
-0.318718
0.529560
0.523186
-0.086574
-0.093630
-0.002150
-0.000689
0.169876
0.173753
-0.503295
-0.493157
0.745309
0.765031
-0.162097
-0.136530
0.084272
0.116333
0.679299
0.723895
1.008181
1.051082
0.719998
0.765882
2.022980
2.070056
0.414457
0.451979
1.693053
1.722502
1.734686
1.749029
2.219888
2.217584
3.021041
3.007869
2.652789
2.621928
2.710492
2.655724
2.827749
2.749549
4.209180
4.117133
1.621042
1.512533
3.979243
3.843938
4.147168
3.999024
1.547357
1.392193
4.967284
4.797896
1.290802
1.114818
4.608551
4.427026
2.711385
2.527596
2.173562
2.001526
2.173249
2.000679
1.694206
1.527433
1.274541
1.130655
1.219628
1.088039
1.647093
1.533474
-0.387240
-0.485069
1.370613
1.286016
0.220997
0.165293
-0.246537
-0.287201
0.980225
0.953370
-0.812700
-0.826756
0.175872
0.169564
-0.003242
-0.000314
-0.101743
-0.097742
0.396782
0.407714
-0.561046
-0.532144
0.654354
0.689241
0.276769
0.317418
0.343576
0.409390
0.222629
0.288031
1.298274
1.362944
0.189767
0.260293
2.798291
2.861219
1.825002
1.883421
2.736152
2.781163
2.488365
2.512621
2.613392
2.626755
3.295257
3.288974
4.106486
4.078429
3.787289
3.736039
3.215719
3.139323
6.035913
5.941683
3.319691
3.201355
3.874690
3.737339
5.004508
4.853392
3.165881
2.994654
4.584190
4.406733
2.455563
2.269496
2.518964
2.322339
3.619381
3.435984
2.003466
1.821936
2.526474
2.343791
2.208327
2.044096
1.029943
0.879447
0.448022
0.318537
2.170502
2.060813
-0.445983
-0.540485
0.512665
0.449121
1.087442
1.039949
-1.346714
-1.381409
1.197291
1.179793
-0.250035
-0.253968
0.000406
0.002201
0.037434
0.041180
-0.140143
-0.129422
0.568786
0.606867
-0.429531
-0.388653
0.700850
0.746918
0.564339
0.646719
1.314069
1.396064
1.148501
1.232105
2.302776
2.399638
1.430268
1.517793
2.408503
2.494628
2.597261
2.674206
3.583203
3.639307
3.832499
3.876396
4.112559
4.132593
3.592131
3.595692
5.005038
4.984417
4.637853
4.582959
3.775670
3.703054
4.894772
4.795400
5.088223
4.967558
4.123668
3.986302
4.552211
4.388372
4.157203
3.989831
4.020982
3.839529
4.890490
4.685369
1.724083
1.535970
4.228297
4.046103
1.474034
1.283754
1.889032
1.716154
2.454886
2.293404
1.676256
1.531197
-0.070238
-0.190092
1.668400
1.567887
0.225012
0.154331
-0.683813
-0.738823
1.758884
1.717550
-1.228265
-1.242425
0.290980
0.287858
0.003534
0.002203
0.035797
0.038029
-0.041576
-0.028281
-0.173971
-0.130028
0.931235
0.979393
-0.145986
-0.087870
0.701657
0.796404
0.652519
0.747108
1.245715
1.350672
1.192309
1.314855
2.346438
2.457234
2.405149
2.516337
3.223438
3.329266
2.847334
2.936678
3.866590
3.941530
3.868354
3.917495
5.194928
5.230214
3.933203
3.940313
5.771598
5.747347
5.270164
5.228090
5.595099
5.517588
5.172049
5.072297
5.266467
5.145787
5.292676
5.141635
4.482046
4.329934
4.959666
4.788258
2.813335
2.612825
5.266038
5.080519
1.831992
1.646581
3.669672
3.476093
2.811341
2.637569
0.520178
0.356221
1.910834
1.758633
1.391486
1.264045
0.196970
0.091344
0.539130
0.464160
1.277941
1.216869
-1.560758
-1.605933
1.284042
1.272049
-0.253589
-0.258664
0.003120
0.000749
-0.035165
-0.030457
0.190403
0.206144
0.266112
0.306571
-0.659386
-0.602401
1.366115
1.439467
0.469191
0.571581
1.472338
1.577842
1.367294
1.489710
2.462441
2.606135
2.076584
2.209446
3.362785
3.494853
2.882849
3.016054
4.793092
4.913554
3.887337
3.990489
5.348712
5.430497
4.326524
4.389830
6.385221
6.418512
4.586604
4.598292
5.875407
5.863187
5.550510
5.499362
4.996258
4.925852
5.987160
5.888935
4.817302
4.684773
5.337471
5.199351
4.178880
4.020570
5.138227
4.956058
2.974434
2.797362
4.019405
3.835229
2.981285
2.790568
1.306493
1.130608
3.854938
3.692363
0.515149
0.364396
1.451376
1.318730
0.885162
0.776805
0.733842
0.657610
-0.708671
-0.773024
1.635861
1.591391
-0.919520
-0.932262
0.226021
0.219244
0.000416
0.000275
0.016077
0.026115
-0.136282
-0.120052
0.023425
0.058116
1.252382
1.316368
-0.725451
-0.644705
1.141614
1.248573
0.537970
0.652725
1.566139
1.699330
1.271975
1.431684
2.644998
2.794343
2.048041
2.198334
3.933718
4.094915
2.529457
2.673764
4.892361
5.022946
3.714822
3.832833
5.779581
5.867125
4.285946
4.348736
6.333227
6.380075
5.520469
5.530840
5.558383
5.534545
7.013819
6.976048
4.759328
4.690469
6.044332
5.939539
4.861722
4.740464
5.399501
5.259878
3.910954
3.752961
4.275519
4.111391
3.694585
3.524350
2.358937
2.181465
3.810103
3.637264
0.555736
0.399759
2.445199
2.299900
0.795088
0.662406
1.030530
0.922908
-0.058443
-0.139156
1.352736
1.285648
-0.899492
-0.940074
0.632051
0.616266
-0.123576
-0.133869
0.000292
-0.001543
-0.012414
-0.000124
0.366394
0.379947
-0.224528
-0.190633
-0.322609
-0.255963
1.288645
1.371288
0.560965
0.673229
1.387133
1.509084
1.405494
1.549044
2.439970
2.612563
2.074360
2.232316
3.821198
3.988411
2.632460
2.813016
5.232592
5.389978
3.569846
3.725809
5.877440
6.023494
4.329810
4.439274
6.374413
6.469768
5.088512
5.167188
5.931251
5.968336
6.207549
6.213203
4.414653
4.404443
6.651033
6.611948
4.972241
4.898462
5.554261
5.457764
4.237742
4.123149
5.054108
4.918815
3.876387
3.727818
3.119858
2.970040
3.749437
3.589304
1.810540
1.647637
2.448455
2.300660
1.542258
1.403061
1.249160
1.126517
0.518193
0.417360
1.552926
1.469654
-0.851431
-0.916052
0.781665
0.750512
-0.182501
-0.198384
0.070232
0.058513
-0.000564
-0.000405
0.006219
0.019047
-0.340258
-0.325948
0.729529
0.767789
0.497113
0.562290
-0.247359
-0.165047
0.790036
0.903698
0.729157
0.852692
1.529321
1.678304
1.275572
1.452400
2.786376
2.953686
1.779181
1.961064
3.924902
4.112854
2.889555
3.059793
4.488813
4.666205
3.838722
4.003422
5.471152
5.603185
4.543649
4.665075
5.782895
5.887175
5.048703
5.118421
5.983177
6.023697
5.849570
5.866598
5.332839
5.320334
5.316977
5.275127
5.006789
4.943059
5.155858
5.070637
3.826185
3.714175
3.897635
3.771903
3.989159
3.863719
2.318716
2.177242
2.620667
2.478944
2.596734
2.465607
0.732136
0.602299
1.672154
1.560573
1.048268
0.955448
-0.818902
-0.901147
1.551388
1.490105
-0.190493
-0.217600
0.033947
0.015967
0.017433
0.008409
-0.000447
0.000594
-0.008536
0.001039
0.417158
0.432687
-0.632570
-0.593576
0.040477
0.098654
1.011625
1.089642
0.626618
0.739593
1.227338
1.350385
1.236509
1.380498
2.136363
2.309210
1.675755
1.852275
3.337776
3.526463
2.735975
2.927960
3.363458
3.548363
4.300607
4.491611
4.328699
4.505420
4.443920
4.596869
5.238411
5.382468
4.641295
4.762571
6.401882
6.497837
3.861229
3.938389
6.389000
6.432430
4.364191
4.377400
5.362284
5.355026
4.379562
4.349916
4.233874
4.179867
4.096017
4.012961
3.978420
3.885240
2.261352
2.161058
3.516869
3.394323
2.259175
2.144325
0.872594
0.763513
2.643693
2.526794
0.271279
0.171814
0.362542
0.280469
1.960198
1.884785
-0.857130
-0.911132
0.179148
0.151166
0.242463
0.222934
-0.049464
-0.054775
0.001062
0.000058
0.056677
0.063563
-0.348049
-0.331252
0.671353
0.709534
0.586546
0.639272
-0.306800
-0.231478
0.811864
0.922203
0.453163
0.571995
1.404502
1.542434
1.137100
1.304615
2.553419
2.725018
1.673948
1.859265
3.192324
3.387564
3.590647
3.782866
2.914249
3.111297
4.167188
4.348471
4.122897
4.292182
4.215395
4.384295
5.061881
5.194212
3.321532
3.438039
6.434116
6.543109
3.056323
3.121388
5.658086
5.699066
4.185629
4.211160
4.375482
4.377195
4.237311
4.216825
3.720837
3.671062
2.839065
2.779557
3.855574
3.782030
1.618286
1.522898
2.352174
2.263849
2.191228
2.099028
0.622503
0.524678
1.177552
1.097336
1.571846
1.500261
-1.091632
-1.156442
1.291237
1.249891
0.057278
0.027245
-0.102261
-0.121736
0.074568
0.070933
0.002300
0.000206
-0.120114
-0.114210
0.426130
0.440004
-0.337094
-0.305758
-0.402476
-0.354664
1.040649
1.112532
0.177471
0.275397
1.314433
1.420306
0.890684
1.025716
1.523310
1.681483
1.539058
1.693578
2.146894
2.328450
2.158879
2.350901
2.105301
2.290807
3.815756
4.016724
2.680294
2.861390
4.083543
4.261470
3.459382
3.647892
3.984415
4.127943
4.720700
4.857551
2.985513
3.120859
5.413871
5.503348
3.287328
3.357513
3.484413
3.539670
3.942067
3.974299
2.843883
2.854302
3.019285
3.002999
3.110950
3.083519
1.665133
1.622308
2.907023
2.850026
1.261115
1.200544
1.314486
1.241481
1.463049
1.393499
0.846154
0.785858
-0.167072
-0.230305
1.492798
1.444514
-0.612513
-0.641115
0.244231
0.215439
0.061981
0.048504
-0.035831
-0.037027
0.001500
0.001579
0.196751
0.202931
-0.463057
-0.452366
0.485791
0.507537
0.612683
0.656900
-0.190360
-0.125902
0.568359
0.648105
0.143400
0.234263
0.683970
0.813147
1.366558
1.507529
0.660772
0.800416
2.355421
2.533156
1.336364
1.510533
3.225133
3.398156
1.229096
1.433912
3.824902
3.999146
1.730815
1.905557
3.673664
3.869538
2.859332
3.012540
3.056445
3.208204
3.862394
4.019850
2.237732
2.352302
3.702989
3.796978
3.603742
3.690339
2.468568
2.530676
3.491683
3.529432
2.382161
2.403904
2.352624
2.356901
2.225506
2.211037
1.400713
1.381876
1.715291
1.683838
1.277422
1.230914
0.544490
0.505129
0.772354
0.729822
0.590087
0.543292
0.048649
0.018637
0.397113
0.373401
0.132665
0.108504
0.002981
-0.003648
0.045681
0.043112
0.000300
0.000802
-0.214536
-0.207463
0.523647
0.531447
-0.230826
-0.213845
-0.271221
-0.229802
0.564933
0.615531
0.130153
0.194129
1.183214
1.260537
0.448136
0.558859
0.798773
0.917246
1.701453
1.828817
0.383747
0.544458
2.419700
2.568869
0.372232
0.538085
3.407934
3.609527
0.309181
0.475182
4.068350
4.239995
1.111376
1.304745
3.261265
3.417201
1.738927
1.899338
2.744343
2.917443
2.716282
2.846397
2.236582
2.352162
1.631593
1.749972
2.823372
2.910318
0.977242
1.046341
2.503145
2.566863
0.915570
0.948603
2.067757
2.081200
0.682820
0.697892
1.208734
1.206583
0.714540
0.695296
0.744807
0.727113
0.606972
0.584826
0.563092
0.538624
-0.212681
-0.230138
0.286249
0.267036
-0.095272
-0.108095
0.062048
0.057428
-0.033819
-0.038162
-0.001304
-0.000703
0.202990
0.209335
-0.427495
-0.425664
0.105379
0.121969
0.368145
0.395709
-0.140775
-0.109985
0.079309
0.133540
-0.104020
-0.041871
0.429213
0.512770
0.241270
0.337787
0.061739
0.171501
1.300570
1.434071
-0.200982
-0.071760
1.925510
2.074672
-0.611758
-0.433539
2.937879
3.099052
-1.190252
-1.019851
2.779987
2.961808
-0.201544
-0.043431
2.895459
3.064407
-0.187230
-0.010157
2.336721
2.480621
0.559795
0.701565
2.122384
2.261809
0.501504
0.608238
1.842881
1.946409
0.534798
0.632880
1.413123
1.476753
0.068241
0.116015
1.806080
1.852913
-0.081460
-0.051000
0.866158
0.876841
0.367327
0.372293
-0.027101
-0.024383
-0.201385
-0.207040
0.765697
0.757269
-0.129864
-0.137481
0.147650
0.143746
-0.063395
-0.067562
0.048259
0.046572
0.000465
-0.000175
-0.209172
-0.206752
0.508911
0.510279
-0.171376
-0.154806
0.078621
0.087199
-0.136289
-0.121275
0.859047
0.902081
-0.516886
-0.475498
0.537924
0.594112
0.382482
0.456077
0.556549
0.640456
-0.013726
0.094008
0.752749
0.865820
0.226047
0.344426
0.953308
1.096521
-0.201762
-0.049154
1.794368
1.953037
-0.129047
0.039245
1.454496
1.618541
-0.661594
-0.493527
2.047138
2.219845
-0.807723
-0.646348
1.501383
1.664090
0.101997
0.251889
0.619875
0.748269
0.870623
1.003245
-0.380944
-0.259156
1.697020
1.793077
-0.552993
-0.469847
0.140688
0.215110
0.537661
0.598509
-0.130127
-0.087610
-0.032769
0.000677
0.430115
0.456934
0.563148
0.574573
-0.568161
-0.559485
0.138552
0.144567
-0.033689
-0.034389
0.129238
0.131470
-0.076761
-0.076021
0.002524
-0.000759
0.191125
0.189365
-0.488104
-0.488452
0.140462
0.150649
-0.096743
-0.097564
0.066584
0.071886
-0.816537
-0.794745
0.645080
0.661068
-0.378287
-0.347785
-0.704895
-0.657733
-0.272610
-0.220158
-0.310311
-0.231370
-0.204529
-0.112721
-1.038892
-0.947313
0.223304
0.338547
-1.214421
-1.083346
-0.514307
-0.379098
-0.943733
-0.787404
-0.829842
-0.669626
-0.053794
0.103650
-1.920905
-1.750859
0.766913
0.939416
-1.767649
-1.596824
-0.753230
-0.592636
-0.140589
0.012632
-2.332036
-2.176285
1.772379
1.912505
-3.950389
-3.828236
2.619316
2.733854
-1.930970
-1.829448
0.119821
0.205579
-0.283168
-0.212438
0.329059
0.389376
-0.738044
-0.693339
-0.294501
-0.265611
0.127364
0.156047
0.067551
0.083519
-0.121243
-0.118013
-0.130311
-0.122142
0.111557
0.113716
-0.000741
0.000650
-0.135864
-0.138080
0.333122
0.327519
-0.041061
-0.043009
-0.257145
-0.262037
0.314984
0.309727
-0.315526
-0.314413
-0.168722
-0.177157
-0.973637
-0.969873
0.553268
0.575067
-1.045759
-1.023397
-0.628008
-0.587786
-1.359846
-1.301451
-0.211121
-0.140976
-2.569222
-2.479369
0.120532
0.221527
-2.388847
-2.277649
-0.620204
-0.483746
-1.711205
-1.567849
-1.823288
-1.674482
-0.633115
-0.467569
-2.765085
-2.592799
-0.632873
-0.459784
-0.917745
-0.748399
-2.433061
-2.260751
1.272985
1.451620
-4.307379
-4.147846
3.228208
3.368509
-4.737024
-4.594588
1.152134
1.283908
-0.966173
-0.858341
-0.738982
-0.643791
-0.942560
-0.857191
0.330952
0.391761
-0.436744
-0.390835
0.044824
0.090007
-0.248076
-0.222200
-0.010207
0.001124
0.130046
0.139105
-0.164926
-0.160860
-0.003223
0.000154
0.102232
0.101074
-0.337620
-0.349054
0.152434
0.139055
-0.138360
-0.155919
-0.550939
-0.569830
0.269599
0.259374
-1.066565
-1.097562
0.325504
0.304308
-2.027131
-2.026567
-0.295663
-0.302135
-1.472149
-1.471592
-0.970162
-0.946927
-2.176986
-2.138794
-0.625922
-0.570084
-3.309371
-3.233967
-0.839483
-0.751177
-3.359412
-3.253254
-1.862042
-1.735178
-2.683719
-2.545078
-2.834868
-2.683671
-2.041536
-1.871319
-2.794512
-2.620459
-3.125397
-2.958672
-1.153549
-0.973803
-4.494169
-4.296485
0.638294
0.815965
-4.973286
-4.818279
0.958006
1.124311
-2.214669
-2.057851
-1.769001
-1.644587
-0.157532
-0.038823
-0.599351
-0.489941
-0.946460
-0.869541
-0.038925
0.023144
-0.519753
-0.466043
-0.356823
-0.325970
0.364939
0.384035
-0.360482
-0.352257
0.204234
0.206981
-0.000275
-0.000165
-0.075483
-0.075922
0.326637
0.313661
-0.648530
-0.664682
0.541656
0.507113
-0.544583
-0.580829
-0.826274
-0.855901
-0.053782
-0.110201
-1.733237
-1.778977
-0.052419
-0.083355
-2.346616
-2.387621
-1.266694
-1.291735
-2.637492
-2.644409
-1.972046
-1.974190
-3.413370
-3.392752
-2.021846
-1.972464
-4.210671
-4.150851
-2.355915
-2.277201
-4.017996
-3.909122
-2.889581
-2.771846
-3.780454
-3.647539
-2.984231
-2.818456
-3.825273
-3.654171
-2.291779
-2.129639
-4.037042
-3.856817
-1.495079
-1.292414
-3.863182
-3.676570
-1.075099
-0.903817
-2.860538
-2.674937
-2.050059
-1.880257
-0.385254
-0.244779
-1.960046
-1.817682
-1.255066
-1.131193
0.014208
0.108299
-1.229344
-1.146597
-0.036365
0.023169
0.537915
0.577525
-1.066701
-1.035383
0.454899
0.467025
-0.245438
-0.243334
0.000284
0.000981
0.020754
0.016603
-0.243542
-0.255086
0.721412
0.705016
-1.249395
-1.292171
0.301939
0.249973
-0.300888
-0.353825
-1.323970
-1.394473
-0.066197
-0.129866
-2.567905
-2.635734
-0.281193
-0.353267
-3.160655
-3.210682
-0.964526
-1.008134
-3.744782
-3.777720
-2.031647
-2.044957
-3.922621
-3.913546
-2.852589
-2.823355
-4.134833
-4.084347
-3.887074
-3.806184
-4.304329
-4.206624
-3.794273
-3.681932
-5.393365
-5.245400
-2.572073
-2.409094
-5.529825
-5.367364
-2.678869
-2.501326
-4.164337
-3.968996
-3.083994
-2.892403
-2.727489
-2.538875
-3.005166
-2.811763
-1.467534
-1.291805
-2.709274
-2.545622
-1.486268
-1.326807
-0.069484
0.060279
-2.374197
-2.261614
0.726687
0.823914
-0.685666
-0.623788
-1.353528
-1.303694
1.165744
1.205044
-0.574096
-0.560195
0.213374
0.218006
-0.000844
-0.002418
-0.003788
-0.011846
0.058186
0.043011
-1.036582
-1.061095
1.080688
1.034902
-1.205636
-1.268688
-0.802768
-0.875848
-0.154204
-0.235260
-2.361925
-2.447845
-0.277575
-0.376118
-3.620114
-3.712858
-0.794147
-0.879203
-4.815146
-4.895251
-1.700155
-1.754944
-4.549442
-4.597976
-3.962892
-3.989855
-4.340359
-4.337515
-4.998290
-4.983911
-3.956318
-3.905226
-5.568342
-5.491330
-4.472883
-4.385696
-3.837557
-3.714529
-6.342909
-6.196933
-3.059110
-2.901584
-4.935718
-4.763153
-4.266736
-4.081175
-2.987765
-2.793297
-4.129434
-3.932509
-2.214271
-2.023183
-3.011759
-2.832575
-1.934491
-1.756928
-0.801074
-0.635053
-3.222916
-3.084508
1.211215
1.337683
-2.401863
-2.298684
-0.178338
-0.111756
0.902396
0.958301
-1.313319
-1.273915
0.398174
0.413527
-0.147111
-0.140412
-0.000583
-0.003609
-0.005984
-0.009972
-0.045257
-0.066060
0.819443
0.785851
-1.471969
-1.522382
0.299782
0.226167
-0.306328
-0.393478
-1.783739
-1.878844
-0.228916
-0.341635
-2.818259
-2.940661
-0.962892
-1.074058
-3.798491
-3.916578
-1.773997
-1.882954
-4.097695
-4.183649
-4.320567
-4.404487
-3.101857
-3.154467
-5.447930
-5.474204
-3.929812
-3.949498
-6.388820
-6.367739
-3.845742
-3.799059
-6.253549
-6.186872
-6.009435
-5.910178
-3.775051
-3.656233
-6.178574
-6.036576
-4.676321
-4.514575
-3.964698
-3.791410
-4.831910
-4.644276
-3.446838
-3.252197
-3.289806
-3.098537