# vtk DataFile Version 2.0
SquarePlate_mix
ASCII
DATASET POLYDATA
POINTS 1681 float
0.000000 0.000000 0.000000
1.000000 0.000000 0.000000
1.000000 1.000000 0.000000
0.000000 1.000000 0.000000
0.025000 0.000000 0.000000
0.050000 0.000000 0.000000
0.075000 0.000000 0.000000
0.100000 0.000000 0.000000
0.125000 0.000000 0.000000
0.150000 0.000000 0.000000
0.175000 0.000000 0.000000
0.200000 0.000000 0.000000
0.225000 0.000000 0.000000
0.250000 0.000000 0.000000
0.275000 0.000000 0.000000
0.300000 0.000000 0.000000
0.325000 0.000000 0.000000
0.350000 0.000000 0.000000
0.375000 0.000000 0.000000
0.400000 0.000000 0.000000
0.425000 0.000000 0.000000
0.450000 0.000000 0.000000
0.475000 0.000000 0.000000
0.500000 0.000000 0.000000
0.525000 0.000000 0.000000
0.550000 0.000000 0.000000
0.575000 0.000000 0.000000
0.600000 0.000000 0.000000
0.625000 0.000000 0.000000
0.650000 0.000000 0.000000
0.675000 0.000000 0.000000
0.700000 0.000000 0.000000
0.725000 0.000000 0.000000
0.750000 0.000000 0.000000
0.775000 0.000000 0.000000
0.800000 0.000000 0.000000
0.825000 0.000000 0.000000
0.850000 0.000000 0.000000
0.875000 0.000000 0.000000
0.900000 0.000000 0.000000
0.925000 0.000000 0.000000
0.950000 0.000000 0.000000
0.975000 0.000000 0.000000
1.000000 0.025000 0.000000
1.000000 0.050000 0.000000
1.000000 0.075000 0.000000
1.000000 0.100000 0.000000
1.000000 0.125000 0.000000
1.000000 0.150000 0.000000
1.000000 0.175000 0.000000
1.000000 0.200000 0.000000
1.000000 0.225000 0.000000
1.000000 0.250000 0.000000
1.000000 0.275000 0.000000
1.000000 0.300000 0.000000
1.000000 0.325000 0.000000
1.000000 0.350000 0.000000
1.000000 0.375000 0.000000
1.000000 0.400000 0.000000
1.000000 0.425000 0.000000
1.000000 0.450000 0.000000
1.000000 0.475000 0.000000
1.000000 0.500000 0.000000
1.000000 0.525000 0.000000
1.000000 0.550000 0.000000
1.000000 0.575000 0.000000
1.000000 0.600000 0.000000
1.000000 0.625000 0.000000
1.000000 0.650000 0.000000
1.000000 0.675000 0.000000
1.000000 0.700000 0.000000
1.000000 0.725000 0.000000
1.000000 0.750000 0.000000
1.000000 0.775000 0.000000
1.000000 0.800000 0.000000
1.000000 0.825000 0.000000
1.000000 0.850000 0.000000
1.000000 0.875000 0.000000
1.000000 0.900000 0.000000
1.000000 0.925000 0.000000
1.000000 0.950000 0.000000
1.000000 0.975000 0.000000
0.975000 1.000000 0.000000
0.950000 1.000000 0.000000
0.925000 1.000000 0.000000
0.900000 1.000000 0.000000
0.875000 1.000000 0.000000
0.850000 1.000000 0.000000
0.825000 1.000000 0.000000
0.800000 1.000000 0.000000
0.775000 1.000000 0.000000
0.750000 1.000000 0.000000
0.725000 1.000000 0.000000
0.700000 1.000000 0.000000
0.675000 1.000000 0.000000
0.650000 1.000000 0.000000
0.625000 1.000000 0.000000
0.600000 1.000000 0.000000
0.575000 1.000000 0.000000
0.550000 1.000000 0.000000
0.525000 1.000000 0.000000
0.500000 1.000000 0.000000
0.475000 1.000000 0.000000
0.450000 1.000000 0.000000
0.425000 1.000000 0.000000
0.400000 1.000000 0.000000
0.375000 1.000000 0.000000
0.350000 1.000000 0.000000
0.325000 1.000000 0.000000
0.300000 1.000000 0.000000
0.275000 1.000000 0.000000
0.250000 1.000000 0.000000
0.225000 1.000000 0.000000
0.200000 1.000000 0.000000
0.175000 1.000000 0.000000
0.150000 1.000000 0.000000
0.125000 1.000000 0.000000
0.100000 1.000000 0.000000
0.075000 1.000000 0.000000
0.050000 1.000000 0.000000
0.025000 1.000000 0.000000
0.000000 0.975000 0.000000
0.000000 0.950000 0.000000
0.000000 0.925000 0.000000
0.000000 0.900000 0.000000
0.000000 0.875000 0.000000
0.000000 0.850000 0.000000
0.000000 0.825000 0.000000
0.000000 0.800000 0.000000
0.000000 0.775000 0.000000
0.000000 0.750000 0.000000
0.000000 0.725000 0.000000
0.000000 0.700000 0.000000
0.000000 0.675000 0.000000
0.000000 0.650000 0.000000
0.000000 0.625000 0.000000
0.000000 0.600000 0.000000
0.000000 0.575000 0.000000
0.000000 0.550000 0.000000
0.000000 0.525000 0.000000
0.000000 0.500000 0.000000
0.000000 0.475000 0.000000
0.000000 0.450000 0.000000
0.000000 0.425000 0.000000
0.000000 0.400000 0.000000
0.000000 0.375000 0.000000
0.000000 0.350000 0.000000
0.000000 0.325000 0.000000
0.000000 0.300000 0.000000
0.000000 0.275000 0.000000
0.000000 0.250000 0.000000
0.000000 0.225000 0.000000
0.000000 0.200000 0.000000
0.000000 0.175000 0.000000
0.000000 0.150000 0.000000
0.000000 0.125000 0.000000
0.000000 0.100000 0.000000
0.000000 0.075000 0.000000
0.000000 0.050000 0.000000
0.000000 0.025000 0.000000
0.025000 0.025000 0.000000
0.025000 0.050000 0.000000
0.025000 0.075000 0.000000
0.025000 0.100000 0.000000
0.025000 0.125000 0.000000
0.025000 0.150000 0.000000
0.025000 0.175000 0.000000
0.025000 0.200000 0.000000
0.025000 0.225000 0.000000
0.025000 0.250000 0.000000
0.025000 0.275000 0.000000
0.025000 0.300000 0.000000
0.025000 0.325000 0.000000
0.025000 0.350000 0.000000
0.025000 0.375000 0.000000
0.025000 0.400000 0.000000
0.025000 0.425000 0.000000
0.025000 0.450000 0.000000
0.025000 0.475000 0.000000
0.025000 0.500000 0.000000
0.025000 0.525000 0.000000
0.025000 0.550000 0.000000
0.025000 0.575000 0.000000
0.025000 0.600000 0.000000
0.025000 0.625000 0.000000
0.025000 0.650000 0.000000
0.025000 0.675000 0.000000
0.025000 0.700000 0.000000
0.025000 0.725000 0.000000
0.025000 0.750000 0.000000
0.025000 0.775000 0.000000
0.025000 0.800000 0.000000
0.025000 0.825000 0.000000
0.025000 0.850000 0.000000
0.025000 0.875000 0.000000
0.025000 0.900000 0.000000
0.025000 0.925000 0.000000
0.025000 0.950000 0.000000
0.025000 0.975000 0.000000
0.050000 0.025000 0.000000
0.050000 0.050000 0.000000
0.050000 0.075000 0.000000
0.050000 0.100000 0.000000
0.050000 0.125000 0.000000
0.050000 0.150000 0.000000
0.050000 0.175000 0.000000
0.050000 0.200000 0.000000
0.050000 0.225000 0.000000
0.050000 0.250000 0.000000
0.050000 0.275000 0.000000
0.050000 0.300000 0.000000
0.050000 0.325000 0.000000
0.050000 0.350000 0.000000
0.050000 0.375000 0.000000
0.050000 0.400000 0.000000
0.050000 0.425000 0.000000
0.050000 0.450000 0.000000
0.050000 0.475000 0.000000
0.050000 0.500000 0.000000
0.050000 0.525000 0.000000
0.050000 0.550000 0.000000
0.050000 0.575000 0.000000
0.050000 0.600000 0.000000
0.050000 0.625000 0.000000
0.050000 0.650000 0.000000
0.050000 0.675000 0.000000
0.050000 0.700000 0.000000
0.050000 0.725000 0.000000
0.050000 0.750000 0.000000
0.050000 0.775000 0.000000
0.050000 0.800000 0.000000
0.050000 0.825000 0.000000
0.050000 0.850000 0.000000
0.050000 0.875000 0.000000
0.050000 0.900000 0.000000
0.050000 0.925000 0.000000
0.050000 0.950000 0.000000
0.050000 0.975000 0.000000
0.075000 0.025000 0.000000
0.075000 0.050000 0.000000
0.075000 0.075000 0.000000
0.075000 0.100000 0.000000
0.075000 0.125000 0.000000
0.075000 0.150000 0.000000
0.075000 0.175000 0.000000
0.075000 0.200000 0.000000
0.075000 0.225000 0.000000
0.075000 0.250000 0.000000
0.075000 0.275000 0.000000
0.075000 0.300000 0.000000
0.075000 0.325000 0.000000
0.075000 0.350000 0.000000
0.075000 0.375000 0.000000
0.075000 0.400000 0.000000
0.075000 0.425000 0.000000
0.075000 0.450000 0.000000
0.075000 0.475000 0.000000
0.075000 0.500000 0.000000
0.075000 0.525000 0.000000
0.075000 0.550000 0.000000
0.075000 0.575000 0.000000
0.075000 0.600000 0.000000
0.075000 0.625000 0.000000
0.075000 0.650000 0.000000
0.075000 0.675000 0.000000
0.075000 0.700000 0.000000
0.075000 0.725000 0.000000
0.075000 0.750000 0.000000
0.075000 0.775000 0.000000
0.075000 0.800000 0.000000
0.075000 0.825000 0.000000
0.075000 0.850000 0.000000
0.075000 0.875000 0.000000
0.075000 0.900000 0.000000
0.075000 0.925000 0.000000
0.075000 0.950000 0.000000
0.075000 0.975000 0.000000
0.100000 0.025000 0.000000
0.100000 0.050000 0.000000
0.100000 0.075000 0.000000
0.100000 0.100000 0.000000
0.100000 0.125000 0.000000
0.100000 0.150000 0.000000
0.100000 0.175000 0.000000
0.100000 0.200000 0.000000
0.100000 0.225000 0.000000
0.100000 0.250000 0.000000
0.100000 0.275000 0.000000
0.100000 0.300000 0.000000
0.100000 0.325000 0.000000
0.100000 0.350000 0.000000
0.100000 0.375000 0.000000
0.100000 0.400000 0.000000
0.100000 0.425000 0.000000
0.100000 0.450000 0.000000
0.100000 0.475000 0.000000
0.100000 0.500000 0.000000
0.100000 0.525000 0.000000
0.100000 0.550000 0.000000
0.100000 0.575000 0.000000
0.100000 0.600000 0.000000
0.100000 0.625000 0.000000
0.100000 0.650000 0.000000
0.100000 0.675000 0.000000
0.100000 0.700000 0.000000
0.100000 0.725000 0.000000
0.100000 0.750000 0.000000
0.100000 0.775000 0.000000
0.100000 0.800000 0.000000
0.100000 0.825000 0.000000
0.100000 0.850000 0.000000
0.100000 0.875000 0.000000
0.100000 0.900000 0.000000
0.100000 0.925000 0.000000
0.100000 0.950000 0.000000
0.100000 0.975000 0.000000
0.125000 0.025000 0.000000
0.125000 0.050000 0.000000
0.125000 0.075000 0.000000
0.125000 0.100000 0.000000
0.125000 0.125000 0.000000
0.125000 0.150000 0.000000
0.125000 0.175000 0.000000
0.125000 0.200000 0.000000
0.125000 0.225000 0.000000
0.125000 0.250000 0.000000
0.125000 0.275000 0.000000
0.125000 0.300000 0.000000
0.125000 0.325000 0.000000
0.125000 0.350000 0.000000
0.125000 0.375000 0.000000
0.125000 0.400000 0.000000
0.125000 0.425000 0.000000
0.125000 0.450000 0.000000
0.125000 0.475000 0.000000
0.125000 0.500000 0.000000
0.125000 0.525000 0.000000
0.125000 0.550000 0.000000
0.125000 0.575000 0.000000
0.125000 0.600000 0.000000
0.125000 0.625000 0.000000
0.125000 0.650000 0.000000
0.125000 0.675000 0.000000
0.125000 0.700000 0.000000
0.125000 0.725000 0.000000
0.125000 0.750000 0.000000
0.125000 0.775000 0.000000
0.125000 0.800000 0.000000
0.125000 0.825000 0.000000
0.125000 0.850000 0.000000
0.125000 0.875000 0.000000
0.125000 0.900000 0.000000
0.125000 0.925000 0.000000
0.125000 0.950000 0.000000
0.125000 0.975000 0.000000
0.150000 0.025000 0.000000
0.150000 0.050000 0.000000
0.150000 0.075000 0.000000
0.150000 0.100000 0.000000
0.150000 0.125000 0.000000
0.150000 0.150000 0.000000
0.150000 0.175000 0.000000
0.150000 0.200000 0.000000
0.150000 0.225000 0.000000
0.150000 0.250000 0.000000
0.150000 0.275000 0.000000
0.150000 0.300000 0.000000
[...]
CELL_DATA 3200
SCALARS PRESSURE float 1
LOOKUP_TABLE default
0.000000
0.000061
0.000061
-0.000145
-0.000149
0.000211
0.000217
-0.000354
-0.000357
0.000495
0.000507
-0.000600
-0.000570
0.000405
0.000436
0.000060
0.000120
-0.000419
-0.000325
0.000881
0.000968
-0.001032
-0.000906
0.000755
0.000923
-0.000363
-0.000195
0.000070
0.000264
0.000028
0.000267
-0.000704
-0.000445
0.000457
0.000741
-0.000544
-0.000255
-0.000513
-0.000229
0.000663
0.000973
-0.002001
-0.001683
0.001366
0.001660
-0.002083
-0.001792
0.000913
0.001208
-0.000694
-0.000421
-0.000895
-0.000647
0.001211
0.001443
-0.002294
-0.002085
0.002170
0.002367
-0.001724
-0.001551
0.000333
0.000458
-0.000079
0.000014
-0.000520
-0.000431
0.000365
0.000425
-0.000084
-0.000043
-0.000211
-0.000183
0.000251
0.000266
-0.000165
-0.000150
0.000077
0.000081
0.000002
0.000004
-0.000203
-0.000209
0.000422
0.000433
-0.000651
-0.000654
0.001279
0.001267
-0.002028
-0.002007
0.002296
0.002327
-0.001685
-0.001641
-0.001107
-0.000976
0.001851
0.002029
-0.005256
-0.005064
0.004543
0.004830
-0.005135
-0.004761
0.000268
0.000687
-0.001227
-0.000750
-0.002240
-0.001695
0.002281
0.002909
-0.004936
-0.004228
0.001925
0.002647
-0.001561
-0.000809
-0.002611
-0.001795
0.004572
0.005390
-0.005654
-0.004860
0.006403
0.007209
-0.006552
-0.005760
0.004281
0.005021
-0.003061
-0.002346
-0.000882
-0.000227
0.004092
0.004663
-0.007638
-0.007099
0.004839
0.005326
-0.002165
-0.001802
0.001427
0.001728
-0.001392
-0.001113
0.001629
0.001826
-0.003048
-0.002925
0.002923
0.003001
-0.002550
-0.002491
0.001165
0.001195
-0.000438
-0.000444
-0.000003
-0.000007
0.000269
0.000259
-0.000238
-0.000263
0.000432
0.000401
-0.001799
-0.001846
0.004054
0.004015
-0.005035
-0.005071
0.003655
0.003648
0.002711
0.002788
-0.005249
-0.005116
0.014187
0.014358
-0.014346
-0.014080
0.014501
0.014907
-0.004029
-0.003514
0.004958
0.005546
0.002232
0.002912
-0.005572
-0.004778
0.010094
0.010986
-0.006673
-0.005692
0.005215
0.006298
0.000570
0.001715
-0.008445
-0.007298
0.007272
0.008437
-0.013171
-0.011974
0.012115
0.013285
-0.013983
-0.012847
0.011276
0.012395
-0.006871
-0.005850
-0.004763
-0.003849
0.012859
0.013735
-0.011494
-0.010707
0.004385
0.005005
-0.005225
-0.004691
0.003624
0.004093
-0.004933
-0.004596
0.006901
0.007125
-0.006663
-0.006497
0.005197
0.005316
-0.002417
-0.002376
0.000877
0.000885
-0.000006
0.000008
-0.000075
-0.000096
-0.000925
-0.000973
0.001640
0.001567
0.000195
0.000085
-0.003779
-0.003915
0.006709
0.006563
-0.005627
-0.005743
-0.002410
-0.002463
0.004712
0.004715
-0.019297
-0.019255
0.019441
0.019568
-0.019744
-0.019448
0.003668
0.004121
-0.010224
-0.009651
0.000078
0.000776
-0.000573
0.000233
-0.005215
-0.004296
-0.004971
-0.003890
0.000576
0.001813
-0.010422
-0.009105
0.017507
0.018864
-0.014563
-0.013154
0.014294
0.015742
-0.013275
-0.011820
0.013185
0.014649
-0.017516
-0.016088
0.015073
0.016402
-0.005088
-0.003834
-0.010605
-0.009427
0.008292
0.009329
-0.002032
-0.001154
0.004115
0.004891
-0.004909
-0.004251
0.005310
0.005798
-0.009325
-0.008971
0.008131
0.008389
-0.007011
-0.006858
0.002978
0.003046
-0.001201
-0.001164
0.000003
0.000003
-0.000332
-0.000358
0.002919
0.002863
-0.005313
-0.005441
0.004658
0.004475
-0.000040
-0.000285
-0.005382
-0.005667
0.008196
0.007922
-0.003860
-0.004096
0.007120
0.006933
0.010786
0.010638
-0.012851
-0.012930
0.014334
0.014414
0.001723
0.001986
0.011936
0.012362
-0.005827
-0.005244
0.012023
0.012746
-0.012296
-0.011428
0.025989
0.027040
-0.015325
-0.014090
0.016640
0.017999
-0.025676
-0.024216
0.015472
0.017031
-0.012265
-0.010645
0.003084
0.004737
-0.003412
-0.001733
0.007730
0.009372
-0.017032
-0.015447
0.011162
0.012707
-0.001410
0.000024
0.001932
0.003201
-0.009669
-0.008556
0.001849
0.002838
-0.000423
0.000415
-0.001731
-0.001083
0.005313
0.005805
-0.005341
-0.004999
0.004941
0.005119
-0.002272
-0.002172
0.001032
0.001078
0.000002
-0.000016
0.000439
0.000405
-0.002866
-0.002960
0.005153
0.004974
-0.004496
-0.004762
0.000644
0.000266
0.006776
0.006339
-0.008580
-0.009026
0.008005
0.007553
-0.013918
-0.014340
-0.006779
-0.007152
0.013097
0.012782
-0.007458
-0.007639
-0.012398
-0.012401
-0.001814
-0.001640
-0.002433
-0.002068
-0.012714
-0.012151
0.021217
0.021961
-0.044579
-0.043645
0.021803
0.022931
-0.011159
-0.009872
0.012343
0.013797
-0.007796
-0.006168
0.003339
0.005052
-0.000509
0.001234
-0.004232
-0.002441
-0.000657
0.001143
0.006561
0.008341
-0.009544
-0.007811
0.003620
0.005248
-0.010211
-0.008725
0.015899
0.017217
-0.009638
-0.008478
0.000227
0.001216
0.001633
0.002417
-0.005420
-0.004809
0.002413
0.002837
-0.002830
-0.002597
0.001073
0.001208
-0.000869
-0.000814
-0.000008
-0.000011
0.000012
-0.000036
-0.000317
-0.000450
0.001693
0.001472
-0.003316
-0.003677
0.007181
0.006667
-0.009844
-0.010418
0.005790
0.005168
-0.001516
-0.002205
0.004258
0.003580
0.018909
0.018284
-0.022448
-0.023019
0.001574
0.001113
0.023886
0.023583
-0.017114
-0.017238
0.019001
0.019088
0.004070
0.004386
-0.024634
-0.024104
0.051911
0.052656
-0.027435
-0.026484
-0.000785
0.000353
0.009534
0.010897
-0.010680
-0.009094
0.003562
0.005256
0.004181
0.005940
-0.011785
-0.009928
0.012585
0.014491
-0.014170
-0.012275
0.008148
0.009990
-0.006398
-0.004624
0.008570
0.010233
-0.016949
-0.015470
0.008577
0.009878
0.004023
0.005150
-0.009966
-0.009053
0.008384
0.009083
-0.003153
-0.002669
0.001132
0.001423
-0.000690
-0.000533
0.000434
0.000485
-0.000006
-0.000002
-0.000158
-0.000212
0.002667
0.002520
-0.005743
-0.006017
0.009174
0.008721
-0.011844
-0.012459
0.011667
0.010967
-0.002684
-0.003493
-0.002805
-0.003720
0.008605
0.007680
-0.023651
-0.024544
0.026550
0.025701
0.000725
-0.000031
-0.018637
-0.019250
0.020673
0.020239
-0.021213
-0.021438
0.002091
0.002102
0.018927
0.019183
-0.039478
-0.038984
0.024011
0.024732
0.003795
0.004755
-0.020996
-0.019779
0.016395
0.017830
-0.009322
-0.007739
-0.011109
-0.009379
0.025472
0.027333
-0.032280
-0.030361
0.020493
0.022418
-0.008861
-0.006964
0.000171
0.002037
-0.003439
-0.001674
0.007397
0.008975
-0.008809
-0.007401
-0.002883
-0.001638
0.005208
0.006226
-0.003368
-0.002601
-0.002373
-0.001835
0.002045
0.002394
-0.000950
-0.000779
0.000043
0.000085
-0.000010
-0.000005
-0.000023
-0.000074
-0.002948
-0.003113
0.006018
0.005683
-0.008758
-0.009271
0.013280
0.012591
-0.010667
-0.011501
0.002204
0.001223
0.006468
0.005370
-0.012803
-0.013951
0.020184
0.019033
-0.019129
-0.020249
0.002032
0.000984
0.005512
0.004591
-0.012930
-0.013678
0.018462
0.017917
-0.010787
-0.011086
-0.002978
-0.003014
0.011786
0.011991
-0.011005
-0.010549
-0.003358
-0.002608
0.013756
0.014773
-0.009109
-0.007891
0.002583
0.004005
0.012904
0.014540
-0.030590
-0.028811
0.031850
0.033711
-0.016975
-0.015081
-0.002987
-0.001086
0.006361
0.008264
-0.008535
-0.006734
0.003671
0.005290
0.002118
0.003583
-0.002184
-0.000891
0.000887
0.001938
-0.006993
-0.006178
0.007774
0.008377
-0.005706
-0.005316
0.001780
0.001953
-0.000559
-0.000507
-0.000022
-0.000009
0.000484
0.000433
0.001420
0.001231
-0.001017
-0.001393
0.003344
0.002797
-0.008565
-0.009326
0.007052
0.006095
0.002223
0.001107
-0.005305
-0.006561
0.013731
0.012382
-0.009931
-0.011298
0.010405
0.009053
-0.001527
-0.002834
0.009994
0.008794
0.007047
0.006000
-0.014265
-0.015125
0.017321
0.016709
-0.012237
-0.012580
0.021677
0.021572
-0.015987
-0.015823
0.015627
0.016114
-0.017655
-0.016900
0.002830
0.003798
0.004785
0.006002
-0.018194
-0.016739
0.026852
0.028475
-0.024764
-0.023016
0.002888
0.004696
0.013467
0.015313
-0.015650
-0.013780
0.015151
0.016934
-0.018146
-0.016509
0.007368
0.008870
-0.003387
-0.002094
-0.003217
-0.002173
0.012295
0.013144
-0.013091
-0.012450
0.007114
0.007517
-0.002628
-0.002446
0.000762
0.000827
-0.000020
-0.000015
-0.000669
-0.000725
0.000657
0.000452
-0.004263
-0.004663
0.003065
0.002484
0.004784
0.003964
-0.001886
-0.002918
-0.001516
-0.002724
0.001782
0.000394
-0.007351
-0.008854
0.002667
0.001132
-0.000598
-0.002157
0.004663
0.003127
-0.021837
-0.023275
0.002907
0.001600
0.009314
0.008167
-0.015006
-0.015923
0.022131
0.021470
-0.046576
-0.047000
0.038136
0.037996
-0.027883
-0.027687
0.024672
0.025135
-0.002805
-0.002112
-0.008767
-0.007789
0.013197
0.014426
-0.016375
-0.014974
0.005995
0.007557
0.008212
0.009887
-0.019783
-0.018047
0.011913
0.013666
-0.013291
-0.011587
0.019916
0.021534
-0.020078
-0.018582
0.013233
0.014509
-0.003988
-0.002950
-0.012082
-0.011240
0.011502
0.012131
-0.005946
-0.005540
0.002009
0.002198
-0.001053
-0.000997
-0.000007
-0.000014
0.000122
0.000070
-0.000307
-0.000518
0.005445
0.005038
-0.002669
-0.003272
-0.004317
-0.005168
0.004322
0.003247
-0.002060
-0.003336
0.007576
0.006101
0.001819
0.000230
0.004004
0.002347
-0.002167
-0.003903
-0.001860
-0.003599
0.029262
0.027613
-0.008596
-0.010124
-0.002106
-0.003485
0.012422
0.011244
-0.020587
-0.021547
0.047842
0.047112
-0.030837
-0.031264
0.014256
0.014168
-0.011567
-0.011409
-0.010012
-0.009622
0.014770
0.015491
-0.007686
-0.006705
-0.003888
-0.002764
0.017975
0.019294
-0.025678
-0.024176
0.019742
0.021301
-0.006855
-0.005296
-0.001839
-0.000277
-0.009993
-0.008479
0.017013
0.018424
-0.020020
-0.018777
0.006452
0.007470
0.007918
0.008713
-0.008456
-0.007841
0.001459
0.001874
-0.001030
-0.000842
0.000957
0.001009
-0.000002
-0.000008
0.000921
0.000867
-0.002180
-0.002382
-0.000263
-0.000651
-0.003496
-0.004094
0.010682
0.009827
-0.008378
-0.009470
0.008065
0.006751
-0.009988
-0.011504
0.001026
-0.000604
0.004823
0.003093
-0.003028
-0.004883
0.005177
0.003283
-0.026698
-0.028524
0.018056
0.016348
-0.005064
-0.006626
-0.003343
-0.004745
0.017514
0.016289
-0.035408
-0.036408
0.017517
0.016826
-0.001007
-0.001376
0.002356
0.002197
0.018743
0.018811
-0.022080
-0.021647
0.008345
0.009039
0.010132
0.010962
-0.030957
-0.029892
0.032880
0.034166
-0.021801
-0.020469
0.005505
0.006853
0.005093
0.006481
-0.001277
0.000064
-0.011224
-0.009955
0.015024
0.016190
-0.000855
0.000088
-0.014332
-0.013604
0.009844
0.010439
-0.000586
-0.000191
-0.000174
0.000005
-0.001031
-0.000969
-0.000003
-0.000013
-0.001871
-0.001934
0.005956
0.005766
-0.007325
-0.007683
0.012965
0.012379
-0.016198
-0.017038
0.014491
0.013426
-0.009827
-0.011120
0.010490
0.008983
0.002587
0.000949
-0.014887
-0.016640
0.018776
0.016882
-0.007080
-0.009044
0.020008
0.018082
-0.018581
-0.020410
0.013890
0.012171
-0.001132
-0.002741
-0.016906
-0.018355
0.032307
0.031081
-0.015724
-0.016676
0.006967
0.006303
-0.009309
-0.009771
-0.008312
-0.008546
0.015058
0.015173
-0.007612
-0.007243
-0.005292
-0.004759
0.020533
0.021315
-0.020789
-0.019791
0.005416
0.006478
0.000575
0.001700
-0.006823
-0.005636
0.001190
0.002336
0.009631
0.010735
-0.017076
-0.016040
-0.000919
-0.000084
0.014622
0.015281
-0.010183
-0.009637
-0.002486
-0.002139
0.001991
0.002155
0.000510
0.000564
-0.000008
-0.000012
0.002139
0.002076
-0.007587
-0.007756
0.012183
0.011856
-0.015526
-0.016091
0.015389
0.014588
-0.011420
-0.012421
0.008183
0.006967
-0.005874
-0.007318
0.001187
-0.000421
0.014455
0.012717
-0.016786
-0.018657
0.003476
0.001530
0.005494
0.003557
0.004525
0.002634
-0.005266
-0.007109
0.001800
0.000029
0.021810
0.020202
-0.029325
-0.030734
0.021080
0.019874
-0.012438
-0.013394
0.015616
0.014881
-0.001831
-0.002340
-0.004225
-0.004441
0.003154
0.003185
0.000624
0.000856
-0.007788
-0.007319
0.003230
0.003879
0.011610
0.012351
-0.009507
-0.008646
0.002719
0.003675
0.004152
0.005091
-0.015525
-0.014612
0.019713
0.020574
-0.002601
-0.001888
-0.014007
-0.013424
0.009783
0.010261
0.000585
0.000885
-0.002000
-0.001866
-0.000411
-0.000372
-0.000016
-0.000007
-0.001728
-0.001785
0.007158
0.007012
-0.013519
-0.013814
0.015137
0.014631
-0.007628
-0.008358
0.002369
0.001456
0.003492
0.002395
-0.001565
-0.002899
-0.000755
-0.002297
-0.001323
-0.003004
0.009468
0.007669
0.002657
0.000782
-0.021094
-0.022997
0.016287
0.014380
-0.008124
-0.010024
0.009009
0.007161
-0.019450
-0.021144
0.023756
0.022213
-0.020861
-0.022280
0.020595
0.019384
-0.019176
-0.020156
0.012883
0.012117
-0.005429
-0.005965
0.001628
0.001314
0.002439
0.002366
-0.004739
-0.004580
0.007537
0.007822
-0.017364
-0.016979
0.007250
0.007810
0.007859
0.008546
-0.018667
-0.017977
0.024193
0.024876
-0.021663
-0.021004
0.001449
0.002019
0.015477
0.015952
-0.015249
-0.014861
0.005762
0.006016
-0.000521
-0.000413
0.000409
0.000455
-0.000020
-0.000005
0.000838
0.000792
-0.005036
-0.005171
0.013073
0.012818
-0.010582
-0.010997
-0.002132
-0.002767
0.012469
0.011675
-0.018509
-0.019454
0.015500
0.014304
0.000665
-0.000756
-0.010413
-0.011959
0.004029
0.002366
0.003170
0.001397
0.013140
0.011290
-0.010161
-0.012037
0.018319
0.016434
-0.020401
-0.022262
0.022477
0.020734
-0.012697
-0.014333
0.016039
0.014468
-0.016239
-0.017663
0.016710
0.015501
-0.015274
-0.016272
0.012795
0.011966
-0.006380
-0.007033
0.000545
0.000162
0.008429
0.008278
-0.006067
-0.006127
0.009792
0.009850
-0.000540
-0.000279
-0.017977
-0.017604
0.028990
0.029376
-0.031646
-0.031213
0.017838
0.018309
0.004263
0.004677
-0.021552
-0.021220
0.020588
0.020868
-0.012854
-0.012663
0.003030
0.003110
-0.000564
-0.000529
-0.000007
0.000002
0.000446
0.000415
0.001618
0.001496
-0.008512
-0.008711
0.002784
0.002457
0.012781
0.012252
-0.024890
-0.025536
0.032095
0.031316
-0.025216
-0.026249
0.005831
0.004605
0.020544
0.019217
-0.018070
-0.019537
-0.001509
-0.003135
0.009322
0.007591
-0.012312
-0.014081
-0.004310
-0.006124
0.022321
0.020482
-0.015804
-0.017568
0.003109
0.001421
0.000257
-0.001402
0.004574
0.002994
-0.002141
-0.003545
0.009644
0.008442
-0.009329
-0.010411
0.008553
0.007592
-0.002245
-0.002970
-0.006148
-0.006657
-0.002367
-0.002756
0.006903
0.006676
-0.009646
-0.009687
0.021447
0.021477
-0.030203
-0.030130
0.029945
0.030144
-0.007880
-0.007593
-0.016480
-0.016241
0.027631
0.027812
-0.024948
-0.024766
0.018421
0.018552
-0.005645
-0.005596
0.000457
0.000471
-0.000007
0.000004
-0.001357
-0.001380
0.001424
0.001342
0.004322
0.004190
0.000696
0.000448
-0.009556
-0.009965
0.018829
0.018341
-0.024566
-0.025175
0.027211
0.026374
-0.016908
-0.017890
-0.011110
-0.012185
0.022792
0.021542
-0.003465
-0.004892
-0.013553
-0.015076
0.029413
0.027828
-0.013307
-0.014992
-0.005008
-0.006771
-0.000161
-0.001908
0.016790
0.015090
-0.019349
-0.021041
0.013331
0.011654
-0.008182
-0.009746
-0.001451
-0.002835
0.007798
0.006521
-0.007653
-0.008871
0.003903
0.002833
0.009175
0.008308
0.003647
0.002958
-0.015216
-0.015730
0.013946
0.013573
-0.016302
-0.016612
0.022486
0.022274
-0.024643
-0.024689
0.001560
0.001609
0.016518
0.016555
-0.019813
-0.019772
0.017405
0.017492
-0.015517
-0.015450
0.004741
0.004757
0.000240
0.000244
-0.000010
-0.000004
0.001601
0.001586
-0.003556
-0.003594
0.000230
0.000165
-0.002729
-0.002880
0.002524
0.002258
-0.004608
-0.004926
0.009387
0.008968
-0.017583
-0.018186
0.022017
0.021300
-0.000985
-0.001809
-0.012463
-0.013480
0.010444
0.009261
0.002887
0.001619
-0.020730
-0.022089
0.020596
0.019104
-0.005784
-0.007400
0.014831
0.013162
-0.025129
-0.026789
0.034825
0.033149
-0.022360
-0.024085
0.013793
0.012102
0.000787
-0.000749
-0.005096
-0.006522
0.010429
0.009003
-0.001868
-0.003225
-0.016342
-0.017502
0.010992
0.010018
0.007655
0.006822
-0.008872
-0.009586
0.011502
0.010892
-0.013320
-0.013780
0.018659
0.018356
0.000871
0.000651
-0.011324
-0.011490
0.011290
0.011197
-0.010770
-0.010795
0.012271
0.012270
-0.004080
-0.004085
-0.000808
-0.000811
-0.000002
-0.000003
-0.001388
-0.001387
0.005060
0.005064
-0.005695
-0.005693
0.007627
0.007591
-0.001274
-0.001383
-0.000985
-0.001129
0.000508
0.000294
0.005505
0.005162
-0.012465
-0.012904
0.005698
0.005138
0.001355
0.000611
-0.006302
-0.007197
0.009763
0.008762
0.003691
0.002568
-0.008479
-0.009747
0.006424
0.005008
-0.011568
-0.013090
0.023229
0.021667
-0.036077
-0.037695
0.029190
0.027464
-0.011281
-0.013048
0.002553
0.000904
0.003415
0.001859
-0.006706
-0.008298
0.001511
-0.000046
0.025158
0.023766
-0.026686
-0.027944
0.010307
0.009151
0.003446
0.002422
-0.010882
-0.011754
0.011092
0.010398
-0.011840
-0.012392
-0.002635
-0.003091
0.009407
0.009067
-0.009125
-0.009354
0.010341
0.010192
-0.011381
-0.011455
0.004101
0.004072
0.001130
0.001111
0.000005
-0.000005
0.000701
0.000712
-0.004116
-0.004080
0.006283
0.006347
-0.006423
-0.006341
-0.002094
-0.002035
0.003342
0.003379
-0.001904
-0.001904
-0.000267
-0.000331
0.005120
0.004982
-0.007344
-0.007608
0.006941
0.006518
0.001535
0.000972
-0.015289
-0.015991
0.013455
0.012591
-0.006434
-0.007462
0.001977
0.000797
0.005687
0.004378
-0.015750
-0.017161
0.034148
0.032626
-0.025837
-0.027511
0.006625
0.004857
0.001410
-0.000314
-0.002528
-0.004214
0.009185
0.007458
-0.002040
-0.003737
-0.022829
-0.024416
0.036870
0.035353
-0.021897
-0.023330
0.004171
0.002885
0.013819
0.012704
-0.011218
-0.012158
0.006918
0.006120
0.005045
0.004381
-0.006608
-0.007105
0.008673
0.008312
-0.009700
-0.009962
0.008813
0.008671
-0.002420
-0.002482
-0.001446
-0.001478
0.000006
-0.000009
-0.000459
-0.000439
0.003366
0.003419
-0.005993
-0.005876
0.005269
0.005454
-0.000441
-0.000218
0.004899
0.005118
-0.008007
-0.007804
0.003567
0.003770
-0.003528
-0.003368
0.006438
0.006471
-0.002908
-0.003002
-0.005642
-0.005849
0.019229
0.018871
-0.018271
-0.018831
0.013370
0.012612
-0.003306
-0.004215
-0.002110
-0.003168
0.012465
0.011238
-0.022544
-0.023938
0.017574
0.016015
0.005306
0.003625
-0.008412
-0.010147
0.012022
0.010241
-0.011142
-0.012967
0.002949
0.001154
0.026039
0.024300
-0.041809
-0.043516
0.035214
0.033580
-0.012747
-0.014246
-0.007875
-0.009216
0.009542
0.008366
0.000445
-0.000576
-0.005723
-0.006581
0.005395
0.004738
-0.006247
-0.006727
0.006971
0.006626
-0.003475
-0.003676
-0.000205
-0.000302
0.001669
0.001630
0.000005
0.000009
0.000546
0.000586
-0.002107
-0.002035
0.002459
0.002631
-0.000799
-0.000519
0.000094
0.000474
-0.011819
-0.011418
0.013916
0.014322
-0.006623
-0.006162
0.005952
0.006394
-0.011048
-0.010728
0.002761
0.002981
0.006513
0.006647
-0.014379
-0.014385
0.011578
0.011355
-0.007491
-0.007937
0.000480
-0.000130
0.003652
0.002866
-0.006918
-0.007931
0.009648
0.008415
-0.002014
-0.003414
-0.010477
-0.012006
0.014674
0.013010
-0.015955
-0.017753
0.014454
0.012584
0.005253
0.003391
-0.030298
-0.032146
0.047197
0.045362
-0.037177
-0.038960
0.018538
0.016857
0.002386
0.000849
-0.002109
-0.003463
-0.003398
-0.004586
0.006978
0.005941
-0.004217
-0.005034
0.005084
0.004494
-0.001029
-0.001448
-0.002620
-0.002883
0.003439
0.003311
-0.001454
-0.001495
0.000009
0.000031
-0.001072
-0.001023
0.001278
0.001412
0.001098
0.001327
-0.005702
-0.005335
0.002702
0.003224
0.011182
0.011759
-0.012134
-0.011517
0.003717
0.004432
-0.011457
-0.010739
0.019758
0.020373
-0.010577
-0.010041
-0.003242
-0.002785
0.007785
0.008106
-0.003534
-0.003424
-0.000930
-0.001046
0.003391
0.003099
-0.004608
-0.005098
0.003368
0.002605
0.008816
0.007786
-0.016209
-0.017424
0.014647
0.013292
-0.009420
-0.010953
0.015642
0.013912
-0.012015
-0.013872
-0.007374
-0.009277
0.034640
0.032730
-0.038575
-0.040479
0.025504
0.023622
-0.005444
-0.007266
0.001849
0.000167
-0.002247
-0.003717
0.006150
0.004843
-0.004475
-0.005644
0.008152
0.007216
-0.006729
-0.007410
-0.001501
-0.001996
0.006985
0.006670
-0.004963
-0.005101
0.001090
0.001047
0.000015
-0.000001
0.002102
0.002149
-0.002599
-0.002421
-0.001476
-0.001205
0.006076
0.006518
-0.002140
-0.001500
-0.011231
-0.010498
0.004755
0.005558
0.001534
0.002468
0.010973
0.011948
-0.023095
-0.022190
0.013164
0.014017
0.001270
0.002049
-0.008304
-0.007668
0.002508
0.002942
0.003101
0.003321
-0.002607
-0.002575
0.005299
0.005118
-0.002370
-0.002847
-0.018485
-0.019265
0.026877
0.025876
-0.002970
-0.004141
-0.007655
-0.009019
-0.001398
-0.002985
0.009357
0.007576
0.013260
0.011372
-0.040051
-0.041960
0.038596
0.036686
-0.012872
-0.014794
-0.000481
-0.002384
-0.007226
-0.009003
0.011235
0.009666
-0.000115
-0.001528
-0.006263
-0.007519
0.000092
-0.000920
0.003188
0.002420
0.008894
0.008320
-0.011400
-0.011755
0.006887
0.006736
-0.000625
-0.000678
0.000010
-0.000018
-0.002871
-0.002811
0.003725
0.003902
-0.000236
0.000081
-0.003132
-0.002628
-0.003895
-0.003160
0.012802
0.013665
-0.001338
-0.000382
-0.007618
-0.006492